ITEM: TIMESTEP
808000
ITEM: NUMBER OF ATOMS
810
ITEM: BOX BOUNDS xy xz yz pp pp pp
8.0341777045796159e-01 5.6206076888475181e+01 3.9918896589326778e+00
8.0582000660415243e-01 5.0210394993394715e+01 0.0000000000000000e+00
-1.0000000000000000e+01 1.0000000000000000e+01 0.0000000000000000e+00
ITEM: ATOMS id type x y z xu yu zu
1 1 1.13956 1.01678 -1.04203 1.13956 1.01678 -1.04203
2 2 7.20646 50.0422 0.345023 3.21457 0.637593 0.345023
3 2 2.82671 1.35839 -2.85047 2.82671 1.35839 -2.85047
4 1 4.04877 2.64392 -1.08103 4.04877 2.64392 -1.08103
5 2 6.0761 2.45853 0.272823 6.0761 2.45853 0.272823
6 2 5.8551 2.88243 -2.93613 5.8551 2.88243 -2.93613
7 1 6.76287 0.925469 -1.73385 6.76287 0.925469 -1.73385
8 2 8.62609 0.944553 -0.04142 8.62609 0.944553 -0.04142
9 2 8.6654 1.0968 -3.37655 8.6654 1.0968 -3.37655
10 1 9.83792 2.62691 -1.61357 9.83792 2.62691 -1.61357
11 2 11.9268 2.6588 -0.245458 11.9268 2.6588 -0.245458
12 2 11.5257 2.4751 -3.41079 11.5257 2.4751 -3.41079
13 1 12.6692 0.895055 -1.86412 12.6692 0.895055 -1.86412
14 2 14.3603 1.1315 -0.106984 14.3603 1.1315 -0.106984
15 2 14.6391 0.777965 -3.35685 14.6391 0.777965 -3.35685
16 1 15.5775 2.58032 -1.84021 15.5775 2.58032 -1.84021
17 2 17.3471 2.78866 0.012392 17.3471 2.78866 0.012392
18 2 17.6674 2.28098 -3.19806 17.6674 2.28098 -3.19806
19 1 18.3853 0.860144 -1.24721 18.3853 0.860144 -1.24721
20 2 19.9553 1.32457 0.672736 19.9553 1.32457 0.672736
21 2 24.6195 49.9392 -2.29402 20.6277 0.534657 -2.29402
22 1 21.3956 2.55597 -1.06125 21.3956 2.55597 -1.06125
23 2 22.7763 2.8562 1.11542 22.7763 2.8562 1.11542
24 2 23.6681 2.29245 -2.0474 23.6681 2.29245 -2.0474
25 1 24.0036 0.940424 0.0593938 24.0036 0.940424 0.0593938
26 2 25.6647 1.29956 2.0546 25.6647 1.29956 2.0546
27 2 30.2706 50.1201 -1.10217 26.2787 0.715497 -1.10217
28 1 26.9749 2.71569 0.531113 26.9749 2.71569 0.531113
29 2 28.4828 3.14985 2.42255 28.4828 3.14985 2.42255
30 2 29.2408 2.42191 -0.660292 29.2408 2.42191 -0.660292
31 1 29.6699 1.08851 1.54625 29.6699 1.08851 1.54625
32 2 31.5778 1.17726 3.12474 31.5778 1.17726 3.12474
33 2 31.6449 0.964037 -0.155358 31.6449 0.964037 -0.155358
34 1 32.6582 2.62998 1.42525 32.6582 2.62998 1.42525
35 2 34.573 2.66236 3.13512 34.573 2.66236 3.13512
36 2 34.6773 2.66367 -0.0889445 34.6773 2.66367 -0.0889445
37 1 35.4569 0.962744 1.6116 35.4569 0.962744 1.6116
38 2 37.5523 0.824329 3.09008 37.5523 0.824329 3.09008
39 2 37.2717 1.01153 -0.0116211 37.2717 1.01153 -0.0116211
40 1 38.5089 2.66025 1.62564 38.5089 2.66025 1.62564
41 2 40.4725 2.3661 3.07574 40.4725 2.3661 3.07574
42 2 40.3374 2.79228 -0.16308 40.3374 2.79228 -0.16308
43 1 41.2361 0.872778 1.17746 41.2361 0.872778 1.17746
44 2 47.3773 49.904 2.36407 43.3854 0.499462 2.36407
45 2 43.0151 1.42487 -0.740867 43.0151 1.42487 -0.740867
46 1 44.2308 2.63351 1.18268 44.2308 2.63351 1.18268
47 2 46.5638 2.32509 2.25908 46.5638 2.32509 2.25908
48 2 45.6732 2.95601 -0.804434 45.6732 2.95601 -0.804434
49 1 46.9134 0.965528 0.127154 46.9134 0.965528 0.127154
50 2 53.1148 50.1128 1.21788 49.1229 0.708265 1.21788
51 2 48.329 1.44943 -1.8907 48.329 1.44943 -1.8907
52 1 49.7888 2.7134 -0.286475 49.7888 2.7134 -0.286475
53 2 51.8386 2.28559 1.14571 51.8386 2.28559 1.14571
54 2 51.5147 3.12476 -2.17027 51.5147 3.12476 -2.17027
55 1 1.36465 4.21612 -0.221363 1.36465 4.21612 -0.221363
56 2 3.49444 3.87789 1.06061 3.49444 3.87789 1.06061
57 2 3.0742 4.67704 -2.14081 3.0742 4.67704 -2.14081
58 1 4.37142 5.88817 -0.363975 4.37142 5.88817 -0.363975
59 2 6.53834 5.52868 0.934825 6.53834 5.52868 0.934825
60 2 6.02107 6.35523 -2.27811 6.02107 6.35523 -2.27811
61 1 7.04645 4.26898 -1.16114 7.04645 4.26898 -1.16114
62 2 9.14311 4.10564 0.204793 9.14311 4.10564 0.204793
63 2 8.79402 4.44145 -2.97568 8.79402 4.44145 -2.97568
64 1 9.97442 5.95555 -1.29626 9.97442 5.95555 -1.29626
65 2 12.1988 5.86459 -0.132607 12.1988 5.86459 -0.132607
66 2 11.5351 5.99766 -3.25809 11.5351 5.99766 -3.25809
67 1 12.6729 4.21137 -1.94386 12.6729 4.21137 -1.94386
68 2 14.7438 4.41106 -0.400569 14.7438 4.41106 -0.400569
69 2 14.5721 4.06687 -3.63322 14.5721 4.06687 -3.63322
70 1 15.7481 5.89177 -2.13941 15.7481 5.89177 -2.13941
71 2 17.531 6.02649 -0.326706 17.531 6.02649 -0.326706
72 2 17.7435 5.6987 -3.55169 17.7435 5.6987 -3.55169
73 1 18.5329 4.14873 -1.70378 18.5329 4.14873 -1.70378
74 2 20.1858 4.37392 0.203661 20.1858 4.37392 0.203661
75 2 20.7522 4.08852 -2.93856 20.7522 4.08852 -2.93856
76 1 21.5183 5.98575 -1.36989 21.5183 5.98575 -1.36989
77 2 23.144 6.34676 0.490141 23.144 6.34676 0.490141
78 2 23.5527 5.54911 -2.63164 23.5527 5.54911 -2.63164
79 1 24.19 4.26541 -0.532287 24.19 4.26541 -0.532287
80 2 25.7466 4.74491 1.49126 25.7466 4.74491 1.49126
81 2 26.5452 3.91466 -1.57299 26.5452 3.91466 -1.57299
82 1 27.2678 5.92171 -0.178463 27.2678 5.92171 -0.178463
83 2 28.9709 6.5197 1.6074 28.9709 6.5197 1.6074
84 2 29.3299 5.53876 -1.39396 29.3299 5.53876 -1.39396
85 1 29.9585 4.31683 0.790133 29.9585 4.31683 0.790133
86 2 31.6559 4.64631 2.53728 31.6559 4.64631 2.53728
87 2 32.0557 4.14651 -0.561619 32.0557 4.14651 -0.561619
88 1 32.8727 6.03913 0.824115 32.8727 6.03913 0.824115
89 2 34.6911 6.27784 2.77823 34.6911 6.27784 2.77823
90 2 35.0713 5.72648 -0.418775 35.0713 5.72648 -0.418775
91 1 35.6782 4.30741 1.53434 35.6782 4.30741 1.53434
92 2 37.6224 4.29815 3.23249 37.6224 4.29815 3.23249
93 2 37.725 4.40952 -0.0244196 37.725 4.40952 -0.0244196
94 1 38.6678 6.0501 1.73851 38.6678 6.0501 1.73851
95 2 40.581 5.898 3.34341 40.581 5.898 3.34341
96 2 40.4997 6.06152 0.035741 40.4997 6.06152 0.035741
97 1 41.4139 4.30567 1.54726 41.4139 4.30567 1.54726
98 2 43.4849 4.10023 2.99427 43.4849 4.10023 2.99427
99 2 43.0901 4.5351 -0.314424 43.0901 4.5351 -0.314424
100 1 44.3966 5.90975 1.38964 44.3966 5.90975 1.38964
101 2 46.4932 5.75433 2.73525 46.4932 5.75433 2.73525
102 2 46.0639 6.21913 -0.526537 46.0639 6.21913 -0.526537
103 1 47.1877 4.26381 0.784166 47.1877 4.26381 0.784166
104 2 49.3923 3.81394 1.91497 49.3923 3.81394 1.91497
105 2 48.6745 4.86319 -1.1676 48.6745 4.86319 -1.1676
106 1 50.1495 5.90058 0.746153 50.1495 5.90058 0.746153
107 2 52.2826 5.56406 1.89677 52.2826 5.56406 1.89677
108 2 51.681 6.20835 -1.25575 51.681 6.20835 -1.25575
109 1 1.68118 7.4736 0.483881 1.68118 7.4736 0.483881
110 2 3.94104 7.18538 1.67521 3.94104 7.18538 1.67521
111 2 3.2421 7.8782 -1.4335 3.2421 7.8782 -1.4335
112 1 4.53356 9.22118 0.300978 4.53356 9.22118 0.300978
113 2 6.82999 8.84239 1.5874 6.82999 8.84239 1.5874
114 2 6.38845 9.62981 -1.55582 6.38845 9.62981 -1.55582
115 1 7.31268 7.59531 -0.477299 7.31268 7.59531 -0.477299
116 2 9.5364 7.40451 0.714514 9.5364 7.40451 0.714514
117 2 8.70839 7.87991 -2.4371 8.70839 7.87991 -2.4371
118 1 10.3171 9.24581 -0.807112 10.3171 9.24581 -0.807112
119 2 12.547 9.00563 0.290927 12.547 9.00563 0.290927
120 2 11.7837 9.48386 -2.90722 11.7837 9.48386 -2.90722
121 1 12.9475 7.59188 -1.82464 12.9475 7.59188 -1.82464
122 2 14.9272 7.45171 -0.363379 14.9272 7.45171 -0.363379
123 2 14.8101 7.7131 -3.60938 14.8101 7.7131 -3.60938
124 1 15.8915 9.24151 -1.94243 15.8915 9.24151 -1.94243
125 2 17.9474 9.26686 -0.374981 17.9474 9.26686 -0.374981
126 2 17.7728 9.20833 -3.62828 17.7728 9.20833 -3.62828
127 1 18.6988 7.56569 -1.99709 18.6988 7.56569 -1.99709
128 2 20.5198 8.02575 -0.172628 20.5198 8.02575 -0.172628
129 2 20.8425 7.3726 -3.33259 20.8425 7.3726 -3.33259
130 1 21.8184 9.17129 -1.96883 21.8184 9.17129 -1.96883
131 2 23.4265 9.39059 -0.0644769 23.4265 9.39059 -0.0644769
132 2 23.9597 8.99577 -3.3 23.9597 8.99577 -3.3
133 1 24.5948 7.48542 -1.29978 24.5948 7.48542 -1.29978
134 2 26.1321 7.94579 0.706671 26.1321 7.94579 0.706671
135 2 26.9047 7.10458 -2.3541 26.9047 7.10458 -2.3541
136 1 27.5434 9.18116 -1.0539 27.5434 9.18116 -1.0539
137 2 29.0905 9.52998 0.898465 29.0905 9.52998 0.898465
138 2 29.6985 8.99911 -2.30334 29.6985 8.99911 -2.30334
139 1 30.2862 7.67385 -0.269474 30.2862 7.67385 -0.269474
140 2 31.7872 8.07707 1.75294 31.7872 8.07707 1.75294
141 2 32.641 7.32646 -1.31148 32.641 7.32646 -1.31148
142 1 33.3046 9.22966 0.0926109 33.3046 9.22966 0.0926109
143 2 34.5804 9.57229 2.15372 34.5804 9.57229 2.15372
144 2 35.613 9.11267 -0.998338 35.613 9.11267 -0.998338
145 1 35.9409 7.73935 1.07597 35.9409 7.73935 1.07597
146 2 37.5051 7.89708 3.07482 37.5051 7.89708 3.07482
147 2 38.1867 7.6072 -0.0403652 38.1867 7.6072 -0.0403652
148 1 38.8342 9.40823 1.54832 38.8342 9.40823 1.54832
149 2 40.7699 9.51388 3.25848 40.7699 9.51388 3.25848
150 2 40.9202 9.29918 -0.00189709 40.9202 9.29918 -0.00189709
151 1 41.6753 7.69554 1.76206 41.6753 7.69554 1.76206
152 2 43.7437 7.54139 3.18488 43.7437 7.54139 3.18488
153 2 43.3853 7.74522 -0.0585866 43.3853 7.74522 -0.0585866
154 1 44.5786 9.29978 1.60678 44.5786 9.29978 1.60678
155 2 46.7508 9.17333 3.05798 46.7508 9.17333 3.05798
156 2 46.4312 9.42256 -0.164008 46.4312 9.42256 -0.164008
157 1 47.3633 7.62166 1.19415 47.3633 7.62166 1.19415
158 2 49.4094 7.38582 2.71031 49.4094 7.38582 2.71031
159 2 49.3132 7.88664 -0.610807 49.3132 7.88664 -0.610807
160 1 50.4064 9.24782 1.20615 50.4064 9.24782 1.20615
161 2 52.643 8.95573 2.422 52.643 8.95573 2.422
162 2 52.0476 9.33595 -0.751155 52.0476 9.33595 -0.751155
163 1 1.91815 10.8404 0.96506 1.91815 10.8404 0.96506
164 2 3.96161 10.4851 2.36776 3.96161 10.4851 2.36776
165 2 3.53529 11.1816 -0.832922 3.53529 11.1816 -0.832922
166 1 4.90807 12.4198 0.90462 4.90807 12.4198 0.90462
167 2 6.94176 12.0084 2.33916 6.94176 12.0084 2.33916
168 2 6.6412 12.7534 -0.884361 6.6412 12.7534 -0.884361
169 1 7.66452 10.7531 0.233872 7.66452 10.7531 0.233872
170 2 9.80287 10.4683 1.34252 9.80287 10.4683 1.34252
171 2 9.12774 11.2176 -1.78956 9.12774 11.2176 -1.78956
172 1 10.5517 12.4835 -0.0986217 10.5517 12.4835 -0.0986217
173 2 12.9016 12.1574 0.820361 12.9016 12.1574 0.820361
174 2 11.9546 12.9448 -2.16186 11.9546 12.9448 -2.16186
175 1 13.1955 10.9229 -1.28817 13.1955 10.9229 -1.28817
176 2 15.3459 10.6509 -0.00286587 15.3459 10.6509 -0.00286587
177 2 14.972 11.0576 -3.22328 14.972 11.0576 -3.22328
178 1 16.1441 12.4726 -1.5409 16.1441 12.4726 -1.5409
179 2 18.3011 12.3736 -0.13972 18.3011 12.3736 -0.13972
180 2 18.0071 12.6438 -3.41454 18.0071 12.6438 -3.41454
181 1 18.9513 10.8323 -2.06466 18.9513 10.8323 -2.06466
182 2 20.8632 10.9174 -0.397134 20.8632 10.9174 -0.397134
183 2 21.0576 10.7947 -3.57916 21.0576 10.7947 -3.57916
184 1 21.9642 12.5229 -2.01171 21.9642 12.5229 -2.01171
185 2 23.7166 12.3523 -0.187617 23.7166 12.3523 -0.187617
186 2 24.0324 12.4884 -3.51353 24.0324 12.4884 -3.51353
187 1 24.8455 10.7923 -1.8485 24.8455 10.7923 -1.8485
188 2 26.3714 11.0557 0.0632533 26.3714 11.0557 0.0632533
189 2 26.9688 10.6146 -3.12395 26.9688 10.6146 -3.12395
190 1 27.7416 12.4311 -1.50624 27.7416 12.4311 -1.50624
191 2 29.532 12.8011 0.333992 29.532 12.8011 0.333992
192 2 29.8844 12.0577 -2.77786 29.8844 12.0577 -2.77786
193 1 30.4814 10.7558 -0.781178 30.4814 10.7558 -0.781178
194 2 32.0563 11.1966 1.17556 32.0563 11.1966 1.17556
195 2 32.72 10.5587 -1.92632 32.72 10.5587 -1.92632
196 1 33.4088 12.5465 -0.554971 33.4088 12.5465 -0.554971
197 2 34.8827 13.1472 1.4872 34.8827 13.1472 1.4872
198 2 35.6892 12.2512 -1.51291 35.6892 12.2512 -1.51291
199 1 36.038 10.9758 0.733942 36.038 10.9758 0.733942
200 2 37.7341 11.516 2.54261 37.7341 11.516 2.54261
201 2 38.2669 10.761 -0.519831 38.2669 10.761 -0.519831
202 1 39.051 12.7665 0.725029 39.051 12.7665 0.725029
203 2 40.6435 12.7947 2.65292 40.6435 12.7947 2.65292
204 2 41.2168 12.4736 -0.57539 41.2168 12.4736 -0.57539
205 1 41.798 11.0161 1.49144 41.798 11.0161 1.49144
206 2 43.7377 10.9667 3.23868 43.7377 10.9667 3.23868
207 2 43.7597 11.0272 -0.0983384 43.7597 11.0272 -0.0983384
208 1 44.7152 12.6872 1.61025 44.7152 12.6872 1.61025
209 2 46.5697 12.438 3.27922 46.5697 12.438 3.27922
210 2 46.7209 12.7955 0.036331 46.7209 12.7955 0.036331
211 1 47.5654 10.9297 1.49489 47.5654 10.9297 1.49489
212 2 49.4264 10.6992 3.06271 49.4264 10.6992 3.06271
213 2 49.3477 11.1785 -0.223025 49.3477 11.1785 -0.223025
214 1 50.5681 12.4965 1.58496 50.5681 12.4965 1.58496
215 2 52.6412 12.1228 3.00986 52.6412 12.1228 3.00986
216 2 52.4111 12.8382 -0.157352 52.4111 12.8382 -0.157352
217 1 2.2631 14.0922 1.70395 2.2631 14.0922 1.70395
218 2 4.31873 13.6193 3.01821 4.31873 13.6193 3.01821
219 2 3.87754 14.3856 -0.153939 3.87754 14.3856 -0.153939
220 1 5.27437 15.6788 1.56496 5.27437 15.6788 1.56496
221 2 7.25857 15.4807 2.93611 7.25857 15.4807 2.93611
222 2 6.88917 15.8458 -0.321716 6.88917 15.8458 -0.321716
223 1 7.89053 13.9864 1.02 7.89053 13.9864 1.02
224 2 10.2076 13.7125 2.01331 10.2076 13.7125 2.01331
225 2 9.372 14.4251 -1.03423 9.372 14.4251 -1.03423
226 1 10.7976 15.7438 0.548305 10.7976 15.7438 0.548305
227 2 13.0447 15.3556 1.59481 13.0447 15.3556 1.59481
228 2 12.2256 16.2303 -1.4251 12.2256 16.2303 -1.4251
229 1 13.4334 14.1917 -0.57788 13.4334 14.1917 -0.57788
230 2 15.642 13.7912 0.589996 15.642 13.7912 0.589996
231 2 15.1245 14.6078 -2.43517 15.1245 14.6078 -2.43517
232 1 16.474 15.7895 -0.678506 16.474 15.7895 -0.678506
233 2 18.7296 15.4597 0.423083 18.7296 15.4597 0.423083
234 2 18.0518 16.0053 -2.80002 18.0518 16.0053 -2.80002
235 1 19.1545 14.1899 -1.66757 19.1545 14.1899 -1.66757
236 2 21.2587 14.1307 -0.186356 21.2587 14.1307 -0.186356
237 2 20.9968 14.3254 -3.41699 20.9968 14.3254 -3.41699
238 1 22.2208 15.8078 -1.82077 22.2208 15.8078 -1.82077
239 2 24.0868 15.7913 -0.0761755 24.0868 15.7913 -0.0761755
240 2 24.1891 15.8744 -3.44914 24.1891 15.8744 -3.44914
241 1 24.9104 14.0691 -1.81599 24.9104 14.0691 -1.81599
242 2 26.7147 14.1398 -0.0167355 26.7147 14.1398 -0.0167355
243 2 27.0085 13.918 -3.29867 27.0085 13.918 -3.29867
244 1 27.9713 15.787 -1.70868 27.9713 15.787 -1.70868
245 2 29.7955 16.0094 -0.0326587 29.7955 16.0094 -0.0326587
246 2 29.9844 15.6721 -3.23168 29.9844 15.6721 -3.23168
247 1 30.7453 14.1092 -1.37853 30.7453 14.1092 -1.37853
248 2 32.3835 14.625 0.462008 32.3835 14.625 0.462008
249 2 32.8317 13.8864 -2.66474 32.8317 13.8864 -2.66474
250 1 33.6938 15.7658 -1.31679 33.6938 15.7658 -1.31679
251 2 35.187 16.2396 0.68742 35.187 16.2396 0.68742
252 2 35.9721 15.5034 -2.35045 35.9721 15.5034 -2.35045
253 1 36.3907 14.2489 -0.211128 36.3907 14.2489 -0.211128
254 2 37.8863 14.7943 1.61619 37.8863 14.7943 1.61619
255 2 38.5702 13.8739 -1.41319 38.5702 13.8739 -1.41319
256 1 39.3781 15.8976 -0.190392 39.3781 15.8976 -0.190392
257 2 40.8307 16.3284 1.80011 40.8307 16.3284 1.80011
258 2 41.7023 15.6043 -1.2057 41.7023 15.6043 -1.2057
259 1 41.9514 14.3934 0.908843 41.9514 14.3934 0.908843
260 2 43.6299 14.5829 2.79539 43.6299 14.5829 2.79539
261 2 44.1908 14.161 -0.367995 44.1908 14.161 -0.367995
262 1 45.0116 15.963 1.27385 45.0116 15.963 1.27385
263 2 46.7097 16.0792 3.14333 46.7097 16.0792 3.14333
264 2 47.0736 15.787 -0.0683259 47.0736 15.787 -0.0683259
265 1 47.7263 14.3075 1.84192 47.7263 14.3075 1.84192
266 2 49.7989 14.0439 3.42044 49.7989 14.0439 3.42044
267 2 49.6459 14.3534 0.181641 49.6459 14.3534 0.181641
268 1 50.9012 15.8114 1.87614 50.9012 15.8114 1.87614
269 2 52.8535 15.7401 3.45402 52.8535 15.7401 3.45402
270 2 52.7939 15.9147 0.19893 52.7939 15.9147 0.19893
271 1 2.45208 17.5025 1.93234 2.45208 17.5025 1.93234
272 2 4.4889 17.2995 3.34229 4.4889 17.2995 3.34229
273 2 4.24849 17.661 0.152269 4.24849 17.661 0.152269
274 1 5.52496 19.1159 1.85205 5.52496 19.1159 1.85205
275 2 7.60297 18.9002 3.19786 7.60297 18.9002 3.19786
276 2 7.19001 19.2142 -0.0135338 7.19001 19.2142 -0.0135338
277 1 8.1995 17.325 1.38188 8.1995 17.325 1.38188
278 2 10.2865 17.2221 2.58216 10.2865 17.2221 2.58216
279 2 9.67115 17.5899 -0.594237 9.67115 17.5899 -0.594237
280 1 11.107 19.018 1.02373 11.107 19.018 1.02373
281 2 13.1284 18.7238 2.19809 13.1284 18.7238 2.19809
282 2 12.6831 19.2974 -0.974594 12.6831 19.2974 -0.974594
283 1 13.7544 17.3425 0.189396 13.7544 17.3425 0.189396
284 2 16.1072 17.1312 1.37151 16.1072 17.1312 1.37151
285 2 15.2885 17.7166 -1.82298 15.2885 17.7166 -1.82298
286 1 16.723 19.0116 -0.191965 16.723 19.0116 -0.191965
287 2 18.8888 18.7356 1.02518 18.8888 18.7356 1.02518
288 2 18.3646 19.4078 -2.19675 18.3646 19.4078 -2.19675
289 1 19.4437 17.4385 -1.14875 19.4437 17.4385 -1.14875
290 2 21.6047 17.154 0.134864 21.6047 17.154 0.134864
291 2 21.1697 17.7366 -3.03833 21.1697 17.7366 -3.03833
292 1 22.4386 19.087 -1.3479 22.4386 19.087 -1.3479
293 2 24.5083 18.9632 0.0770273 24.5083 18.9632 0.0770273
294 2 24.3241 19.3989 -3.12208 24.3241 19.3989 -3.12208
295 1 25.2303 17.447 -1.73176 25.2303 17.447 -1.73176
296 2 27.2017 17.6124 -0.0652398 27.2017 17.6124 -0.0652398
297 2 27.1986 17.4804 -3.40208 27.1986 17.4804 -3.40208
298 1 28.2479 19.2262 -1.77682 28.2479 19.2262 -1.77682
299 2 30.0768 19.3035 -0.154382 30.0768 19.3035 -0.154382
300 2 30.1878 19.1251 -3.46079 30.1878 19.1251 -3.46079
301 1 30.921 17.5079 -1.69837 30.921 17.5079 -1.69837
302 2 32.8332 17.746 0.00223291 32.8332 17.746 0.00223291
303 2 33.0054 17.3488 -3.08962 33.0054 17.3488 -3.08962
304 1 34.013 19.0886 -1.69891 34.013 19.0886 -1.69891
305 2 35.6446 19.4431 0.236425 35.6446 19.4431 0.236425
306 2 36.1371 18.934 -2.98712 36.1371 18.934 -2.98712
307 1 36.6801 17.4677 -0.953191 36.6801 17.4677 -0.953191
308 2 38.2838 17.8456 0.937856 38.2838 17.8456 0.937856
309 2 38.8911 17.3186 -2.18378 38.8911 17.3186 -2.18378
310 1 39.6696 19.1671 -0.718353 39.6696 19.1671 -0.718353
311 2 41.2042 19.6805 1.19872 41.2042 19.6805 1.19872
312 2 41.8461 18.8073 -1.89235 41.8461 18.8073 -1.89235
313 1 42.3372 17.6156 0.261075 42.3372 17.6156 0.261075
314 2 43.7135 17.832 2.29222 43.7135 17.832 2.29222
315 2 44.6597 17.3326 -0.776503 44.6597 17.3326 -0.776503
316 1 45.2622 19.1947 0.761942 45.2622 19.1947 0.761942
317 2 46.9087 19.6829 2.5447 46.9087 19.6829 2.5447
318 2 47.4965 18.7721 -0.518486 47.4965 18.7721 -0.518486
319 1 48.1112 17.5592 1.60185 48.1112 17.5592 1.60185
320 2 50.0712 17.7158 3.38978 50.0712 17.7158 3.38978
321 2 50.0834 17.4881 0.0439379 50.0834 17.4881 0.0439379
322 1 50.963 19.2264 1.63078 50.963 19.2264 1.63078
323 2 52.9306 19.3345 3.3392 52.9306 19.3345 3.3392
324 2 52.9877 19.0105 0.0999888 52.9877 19.0105 0.0999888
325 1 2.64904 20.765 1.6065 2.64904 20.765 1.6065
326 2 4.59087 20.9861 3.20814 4.59087 20.9861 3.20814
327 2 4.55104 20.8369 0.0312466 4.55104 20.8369 0.0312466
328 1 5.70073 22.4348 1.49315 5.70073 22.4348 1.49315
329 2 7.55692 22.4502 3.12454 7.55692 22.4502 3.12454
330 2 7.51144 22.2377 -0.165129 7.51144 22.2377 -0.165129
331 1 8.53585 20.705 1.62619 8.53585 20.705 1.62619
332 2 10.6893 20.6295 2.95357 10.6893 20.6295 2.95357
333 2 10.0009 20.8253 -0.343615 10.0009 20.8253 -0.343615
334 1 11.4546 22.3878 1.21227 11.4546 22.3878 1.21227
335 2 13.5905 22.0944 2.5673 13.5905 22.0944 2.5673
336 2 13.2216 22.5489 -0.637244 13.2216 22.5489 -0.637244
337 1 14.0747 20.6838 0.721305 14.0747 20.6838 0.721305
338 2 16.2875 20.2717 1.87953 16.2875 20.2717 1.87953
339 2 15.7323 21.1415 -1.18545 15.7323 21.1415 -1.18545
340 1 17.2159 22.326 0.557299 17.2159 22.326 0.557299
341 2 19.3269 21.8516 1.83476 19.3269 21.8516 1.83476
342 2 18.9472 22.7276 -1.33874 18.9472 22.7276 -1.33874
343 1 19.7957 20.6071 -0.408382 19.7957 20.6071 -0.408382
344 2 21.9361 20.2257 0.916237 21.9361 20.2257 0.916237
345 2 21.4452 21.1927 -2.232 21.4452 21.1927 -2.232
346 1 22.8765 22.3365 -0.359748 22.8765 22.3365 -0.359748
347 2 25.0514 22.2498 0.755844 25.0514 22.2498 0.755844
348 2 24.3128 22.6698 -2.35189 24.3128 22.6698 -2.35189
349 1 25.4897 20.784 -1.32187 25.4897 20.784 -1.32187
350 2 27.5802 20.7757 0.0823063 27.5802 20.7757 0.0823063
351 2 27.2733 20.9132 -3.23081 27.2733 20.9132 -3.23081
352 1 28.4236 22.4567 -1.64912 28.4236 22.4567 -1.64912
353 2 30.4202 22.373 -0.0611473 30.4202 22.373 -0.0611473
354 2 30.3053 22.5097 -3.27123 30.3053 22.5097 -3.27123
355 1 31.1969 20.7715 -1.80319 31.1969 20.7715 -1.80319
356 2 33.041 20.8228 -0.123092 33.041 20.8228 -0.123092
357 2 33.0765 20.866 -3.34112 33.0765 20.866 -3.34112
358 1 34.1665 22.4431 -1.68984 34.1665 22.4431 -1.68984
359 2 36.1284 22.4779 0.035983 36.1284 22.4779 0.035983
360 2 36.2572 22.542 -3.28273 36.2572 22.542 -3.28273
361 1 37.0211 20.7755 -1.58098 37.0211 20.7755 -1.58098
362 2 38.5557 21.0438 0.319235 38.5557 21.0438 0.319235
363 2 39.1426 20.4684 -2.79433 39.1426 20.4684 -2.79433
364 1 39.9765 22.4126 -1.38334 39.9765 22.4126 -1.38334
365 2 41.7371 22.8492 0.472454 41.7371 22.8492 0.472454
366 2 42.1333 22.0374 -2.81306 42.1333 22.0374 -2.81306
367 1 42.6719 20.8595 -0.569639 42.6719 20.8595 -0.569639
368 2 43.9818 21.2828 1.47842 43.9818 21.2828 1.47842
369 2 44.8753 20.4327 -1.44619 44.8753 20.4327 -1.44619
370 1 45.6481 22.4848 -0.104131 45.6481 22.4848 -0.104131
371 2 47.1017 22.9976 1.85348 47.1017 22.9976 1.85348
372 2 47.7648 21.9455 -1.23061 47.7648 21.9455 -1.23061
373 1 48.2562 20.8662 0.848488 48.2562 20.8662 0.848488
374 2 49.9122 21.3337 2.64836 49.9122 21.3337 2.64836
375 2 50.3519 20.4993 -0.4997 50.3519 20.4993 -0.4997
376 1 51.2654 22.4099 0.790626 51.2654 22.4099 0.790626
377 2 52.8517 22.6854 2.67515 52.8517 22.6854 2.67515
378 2 53.3768 22.1053 -0.426334 53.3768 22.1053 -0.426334
379 1 2.88184 24.0401 0.959859 2.88184 24.0401 0.959859
380 2 4.63262 24.4008 2.71854 4.63262 24.4008 2.71854
381 2 4.90169 23.8879 -0.466298 4.90169 23.8879 -0.466298
382 1 5.87274 25.7502 0.91643 5.87274 25.7502 0.91643
383 2 7.62261 25.7603 2.77826 7.62261 25.7603 2.77826
384 2 7.7716 25.5962 -0.631397 7.7716 25.5962 -0.631397
385 1 8.59415 24.0191 1.21977 8.59415 24.0191 1.21977
386 2 10.6179 23.9705 2.89938 10.6179 23.9705 2.89938
387 2 10.533 24.1599 -0.396681 10.533 24.1599 -0.396681
388 1 11.6278 25.7 1.31455 11.6278 25.7 1.31455
389 2 13.6584 25.5012 2.84184 13.6584 25.5012 2.84184
390 2 13.4404 25.7852 -0.4074 13.4404 25.7852 -0.4074
391 1 14.4597 23.9143 1.05577 14.4597 23.9143 1.05577
392 2 16.4108 23.6348 2.59326 16.4108 23.6348 2.59326
393 2 16.2914 24.3092 -0.674246 16.2914 24.3092 -0.674246
394 1 17.4585 25.591 1.15792 17.4585 25.591 1.15792
395 2 19.5361 25.3453 2.54912 19.5361 25.3453 2.54912
396 2 19.0909 25.7969 -0.635588 19.0909 25.7969 -0.635588
397 1 20.1454 23.8382 0.556719 20.1454 23.8382 0.556719
398 2 22.3274 23.6209 1.66611 22.3274 23.6209 1.66611
399 2 21.64 24.3396 -1.38164 21.64 24.3396 -1.38164
400 1 23.0476 25.7016 0.284049 23.0476 25.7016 0.284049
401 2 25.1609 25.2876 1.3911 25.1609 25.2876 1.3911
402 2 24.6638 26.3201 -1.59219 24.6638 26.3201 -1.59219
403 1 25.6898 24.1593 -0.748629 25.6898 24.1593 -0.748629
404 2 27.8236 23.8474 0.518966 27.8236 23.8474 0.518966
405 2 27.218 24.4543 -2.65216 27.218 24.4543 -2.65216
406 1 28.6777 25.7385 -0.90451 28.6777 25.7385 -0.90451
407 2 30.8297 25.5443 0.358266 30.8297 25.5443 0.358266
408 2 30.4311 26.0181 -2.83101 30.4311 26.0181 -2.83101
409 1 31.4485 24.0508 -1.62981 31.4485 24.0508 -1.62981
410 2 33.4113 24.0748 -0.053651 33.4113 24.0748 -0.053651
411 2 33.2718 24.0956 -3.26936 33.2718 24.0956 -3.26936
412 1 34.3984 25.7918 -1.6744 34.3984 25.7918 -1.6744
413 2 36.331 25.8294 -0.00320838 36.331 25.8294 -0.00320838
414 2 36.3893 25.7893 -3.34588 36.3893 25.7893 -3.34588
415 1 37.1541 24.1331 -1.60341 37.1541 24.1331 -1.60341
416 2 39.176 24.3259 0.000257212 39.176 24.3259 0.000257212
417 2 39.0886 23.9539 -3.20548 39.0886 23.9539 -3.20548
418 1 40.1746 25.7407 -1.84982 40.1746 25.7407 -1.84982
419 2 42.0216 25.9103 -0.185131 42.0216 25.9103 -0.185131
420 2 42.0821 25.5672 -3.31305 42.0821 25.5672 -3.31305
421 1 42.9986 24.003 -1.44862 42.9986 24.003 -1.44862
422 2 44.395 24.4997 0.559462 44.395 24.4997 0.559462
423 2 45.2685 23.7637 -2.37074 45.2685 23.7637 -2.37074
424 1 45.882 25.7231 -1.03974 45.882 25.7231 -1.03974
425 2 47.5956 26.4251 0.676691 47.5956 26.4251 0.676691
426 2 48.1664 25.2818 -2.27022 48.1664 25.2818 -2.27022
427 1 48.6095 24.1108 0.00656839 48.6095 24.1108 0.00656839
428 2 50.2365 24.5014 1.76041 50.2365 24.5014 1.76041
429 2 50.7148 23.6763 -1.37484 50.7148 23.6763 -1.37484
430 1 51.5449 25.7216 -0.0538611 51.5449 25.7216 -0.0538611
431 2 53.2123 26.1084 1.84543 53.2123 26.1084 1.84543
432 2 53.7596 25.3193 -1.22877 53.7596 25.3193 -1.22877
433 1 3.05028 27.4009 0.0624195 3.05028 27.4009 0.0624195
434 2 4.7377 27.6836 2.05698 4.7377 27.6836 2.05698
435 2 5.26777 27.0054 -1.13113 5.26777 27.0054 -1.13113
436 1 6.14807 28.9609 0.340895 6.14807 28.9609 0.340895
437 2 7.76744 29.4195 2.17304 7.76744 29.4195 2.17304
438 2 8.21156 28.6876 -1.023 8.21156 28.6876 -1.023
439 1 8.78436 27.4278 1.00315 8.78436 27.4278 1.00315
440 2 10.648 27.4679 2.76582 10.648 27.4679 2.76582
441 2 10.8471 27.4102 -0.518798 10.8471 27.4102 -0.518798
442 1 11.9018 29.0902 1.14527 11.9018 29.0902 1.14527
443 2 13.8066 29.0634 2.93957 13.8066 29.0634 2.93957
444 2 13.9157 28.9974 -0.370309 13.9157 28.9974 -0.370309
445 1 14.6435 27.3435 1.28868 14.6435 27.3435 1.28868
446 2 16.4894 27.1543 2.90751 16.4894 27.1543 2.90751
447 2 16.6422 27.5046 -0.285139 16.6422 27.5046 -0.285139
448 1 17.6222 28.9164 1.49843 17.6222 28.9164 1.49843
449 2 19.5539 28.7146 2.97216 19.5539 28.7146 2.97216
450 2 19.3809 29.0675 -0.214131 19.3809 29.0675 -0.214131
451 1 20.4286 27.2512 1.09633 20.4286 27.2512 1.09633
452 2 22.6352 26.9661 2.39755 22.6352 26.9661 2.39755
453 2 22.0303 27.8215 -0.669931 22.0303 27.8215 -0.669931
454 1 23.4869 28.921 1.05031 23.4869 28.921 1.05031
455 2 25.6661 28.8353 2.35542 25.6661 28.8353 2.35542
456 2 24.9825 29.2413 -0.902341 24.9825 29.2413 -0.902341
457 1 26.0882 27.3255 0.259723 26.0882 27.3255 0.259723
458 2 28.4889 27.0264 1.25662 28.4889 27.0264 1.25662
459 2 27.5306 27.7981 -1.8032 27.5306 27.7981 -1.8032
460 1 28.9382 29.0856 -0.251745 28.9382 29.0856 -0.251745
461 2 31.2641 28.9761 0.866986 31.2641 28.9761 0.866986
462 2 30.5338 29.3573 -2.18327 30.5338 29.3573 -2.18327
463 1 31.6573 27.3655 -1.09769 31.6573 27.3655 -1.09769
464 2 33.7996 27.2104 0.280281 33.7996 27.2104 0.280281
465 2 33.3137 27.6044 -2.95409 33.3137 27.6044 -2.95409
466 1 34.6007 29.1421 -1.35672 34.6007 29.1421 -1.35672
467 2 36.6861 28.9772 0.14753 36.6861 28.9772 0.14753
468 2 36.443 29.1422 -3.09763 36.443 29.1422 -3.09763
469 1 37.4245 27.4751 -1.60409 37.4245 27.4751 -1.60409
470 2 39.4856 27.554 -0.22725 39.4856 27.554 -0.22725
471 2 39.1401 27.4773 -3.47078 39.1401 27.4773 -3.47078
472 1 40.364 29.1049 -1.92538 40.364 29.1049 -1.92538
473 2 42.2039 29.1665 -0.363737 42.2039 29.1665 -0.363737
474 2 42.2275 28.9695 -3.64906 42.2275 28.9695 -3.64906
475 1 43.1765 27.4003 -1.92524 43.1765 27.4003 -1.92524
476 2 44.8114 27.7886 -0.0176884 44.8114 27.7886 -0.0176884
477 2 45.3135 27.0268 -3.1008 45.3135 27.0268 -3.1008
478 1 46.1457 28.999 -1.75838 46.1457 28.999 -1.75838
479 2 47.9339 29.3603 0.00202605 47.9339 29.3603 0.00202605
480 2 48.176 28.7722 -3.19105 48.176 28.7722 -3.19105
481 1 48.9247 27.34 -1.21308 48.9247 27.34 -1.21308
482 2 50.2707 27.8547 0.79402 50.2707 27.8547 0.79402
483 2 51.1304 26.9679 -2.18376 51.1304 26.9679 -2.18376
484 1 51.7915 29.0773 -0.783704 51.7915 29.0773 -0.783704
485 2 53.5159 29.5842 1.082 53.5159 29.5842 1.082
486 2 53.8764 28.5225 -2.02075 53.8764 28.5225 -2.02075
487 1 3.43163 30.5959 -0.881588 3.43163 30.5959 -0.881588
488 2 4.83043 31.009 1.22869 4.83043 31.009 1.22869
489 2 5.71975 30.2864 -1.83868 5.71975 30.2864 -1.83868
490 1 6.33445 32.2837 -0.37645 6.33445 32.2837 -0.37645
491 2 8.17047 32.5694 1.46317 8.17047 32.5694 1.46317
492 2 8.4369 31.9676 -1.70448 8.4369 31.9676 -1.70448
493 1 9.08805 30.5795 0.371687 9.08805 30.5795 0.371687
494 2 10.7401 30.9787 2.27705 10.7401 30.9787 2.27705
495 2 11.3174 30.5269 -0.876867 11.3174 30.5269 -0.876867
496 1 12.1042 32.3482 0.692777 12.1042 32.3482 0.692777
497 2 13.7643 32.4967 2.64426 13.7643 32.4967 2.64426
498 2 14.353 32.2448 -0.607118 14.353 32.2448 -0.607118
499 1 14.8969 30.6669 1.30814 14.8969 30.6669 1.30814
500 2 16.5901 30.6458 3.18282 16.5901 30.6458 3.18282
501 2 16.925 30.7892 -0.124214 16.925 30.7892 -0.124214
502 1 17.7845 32.3235 1.76794 17.7845 32.3235 1.76794
503 2 19.8747 32.1373 3.3697 19.8747 32.1373 3.3697
504 2 19.6897 32.3855 0.0275479 19.6897 32.3855 0.0275479
505 1 20.5952 30.5397 1.50763 20.5952 30.5397 1.50763
506 2 22.7017 30.3495 2.91883 22.7017 30.3495 2.91883
507 2 22.4063 30.8938 -0.232734 22.4063 30.8938 -0.232734
508 1 23.5802 32.2433 1.51617 23.5802 32.2433 1.51617
509 2 25.7753 31.872 2.797 25.7753 31.872 2.797
510 2 25.3657 32.8076 -0.217643 25.3657 32.8076 -0.217643
511 1 26.3595 30.6797 0.762453 26.3595 30.6797 0.762453
512 2 28.5727 30.4242 1.86557 28.5727 30.4242 1.86557
513 2 27.7488 31.0659 -1.33141 27.7488 31.0659 -1.33141
514 1 29.4023 32.372 0.506351 29.4023 32.372 0.506351
515 2 31.7167 31.9486 1.52691 31.7167 31.9486 1.52691
516 2 30.8082 32.9865 -1.52043 30.8082 32.9865 -1.52043
517 1 31.949 30.8294 -0.669436 31.949 30.8294 -0.669436
518 2 34.0277 30.4971 0.689609 34.0277 30.4971 0.689609
519 2 33.5767 31.263 -2.55482 33.5767 31.263 -2.55482
520 1 34.9255 32.3933 -0.73805 34.9255 32.3933 -0.73805
521 2 36.9697 32.0691 0.583206 36.9697 32.0691 0.583206
522 2 36.7417 32.8217 -2.60939 36.7417 32.8217 -2.60939
523 1 37.6141 30.8069 -1.49261 37.6141 30.8069 -1.49261
524 2 39.7646 30.8043 -0.10857 39.7646 30.8043 -0.10857
525 2 39.2273 30.8832 -3.28823 39.2273 30.8832 -3.28823
526 1 40.5648 32.4826 -1.87038 40.5648 32.4826 -1.87038
527 2 42.5857 32.3451 -0.350795 42.5857 32.3451 -0.350795
528 2 42.3859 32.4258 -3.5531 42.3859 32.4258 -3.5531
529 1 43.2951 30.7123 -2.05309 43.2951 30.7123 -2.05309
530 2 45.2332 30.9073 -0.38926 45.2332 30.9073 -0.38926
531 2 45.1989 30.3399 -3.59733 45.1989 30.3399 -3.59733
532 1 46.286 32.2719 -2.29043 46.286 32.2719 -2.29043
533 2 48.1779 32.5846 -0.508835 48.1779 32.5846 -0.508835
534 2 48.3967 32.0805 -3.63111 48.3967 32.0805 -3.63111
535 1 49.1274 30.7087 -1.78323 49.1274 30.7087 -1.78323
536 2 50.7721 31.143 0.120681 50.7721 31.143 0.120681
537 2 51.2903 30.2344 -2.92693 51.2903 30.2344 -2.92693