ITEM: TIMESTEP
3331000
ITEM: NUMBER OF ATOMS
810
ITEM: BOX BOUNDS xy xz yz pp pp pp
8.0341777045796159e-01 6.8670851157642431e+01 1.6456663928099935e+01
8.0582000660415243e-01 5.0210394993394715e+01 0.0000000000000000e+00
-1.0000000000000000e+01 1.0000000000000000e+01 0.0000000000000000e+00
ITEM: ATOMS id type x y z xu yu zu
1 1 65.8646 46.57 -8.77559 -2.00283 -2.83459 -8.77559
2 2 16.6706 47.5165 -7.73967 0.213898 -1.88804 -7.73967
3 2 16.1472 45.3345 9.85414 -0.309512 -4.07009 -10.1459
4 1 17.343 47.4801 9.87758 0.886358 -1.92449 -10.1224
5 2 19.431 48.5114 -8.99481 2.97438 -0.893151 -8.99481
6 2 19.1131 46.4982 8.41911 2.65643 -2.90642 -11.5809
7 1 20.2514 45.9988 -9.23066 3.79473 -3.40578 -9.23066
8 2 21.9662 47.4814 -8.04598 5.50954 -1.92316 -8.04598
9 2 22.4149 44.9616 -9.98529 5.95826 -4.44297 -9.98529
10 1 23.1822 47.2661 9.74914 6.7255 -2.13849 -10.2509
11 2 24.7245 48.6953 -9.09025 8.26786 -0.709267 -9.09025
12 2 25.3058 46.1962 9.03218 8.84918 -3.20842 -10.9678
13 1 25.8998 46.5669 -8.56741 9.44317 -2.83763 -8.56741
14 2 27.446 48.1587 -7.34878 10.9893 -1.24583 -7.34878
15 2 28.0595 45.5659 -9.23781 11.6028 -3.83865 -9.23781
16 1 28.7972 48.0433 -9.342 12.3406 -1.36123 -9.342
17 2 30.2208 49.4536 -7.894 13.7642 0.0490078 -7.894
18 2 31.1323 47.2711 9.85838 14.6756 -2.13351 -10.1416
19 1 31.4681 47.3632 -7.63881 15.0114 -2.04137 -7.63881
20 2 33.2074 48.7414 -6.24872 16.7507 -0.66318 -6.24872
21 2 33.4684 46.2045 -8.6607 17.0117 -3.2001 -8.6607
22 1 34.2822 48.7433 -8.49922 17.8256 -0.661245 -8.49922
23 2 19.5308 0.625377 -7.23218 19.5308 0.625377 -7.23218
24 2 36.3923 47.92 -9.46791 19.9356 -1.48456 -9.46791
25 1 37.1867 47.86 -7.06612 20.7301 -1.54459 -7.06612
26 2 38.4912 49.0407 -5.34026 22.0345 -0.363899 -5.34026
27 2 39.6387 47.8455 -7.83676 23.1821 -1.5591 -7.83676
28 1 28.8993 4.83187 3.13861 28.8993 4.83187 3.13861
29 2 31.0968 3.9539 2.56953 31.0968 3.9539 2.56953
30 2 28.6739 5.07989 0.615398 28.6739 5.07989 0.615398
31 1 29.657 2.77087 0.771212 29.657 2.77087 0.771212
32 2 31.9175 1.90157 0.354962 31.9175 1.90157 0.354962
33 2 29.6805 2.57456 -1.76258 29.6805 2.57456 -1.76258
34 1 32.033 3.45794 -1.52208 32.033 3.45794 -1.52208
35 2 34.2853 2.55931 -1.5275 34.2853 2.55931 -1.5275
36 2 32.3642 3.07031 -4.06619 32.3642 3.07031 -4.06619
37 1 33.5266 0.988607 -3.20549 33.5266 0.988607 -3.20549
38 2 52.417 49.9135 -2.81088 35.9603 0.50891 -2.81088
39 2 50.6106 49.8141 -5.56881 34.1539 0.409502 -5.56881
40 1 36.2754 1.9217 -4.93631 36.2754 1.9217 -4.93631
41 2 38.71 1.42084 -4.31495 38.71 1.42084 -4.31495
42 2 37.1043 1.19706 -7.23379 37.1043 1.19706 -7.23379
43 1 54.8816 48.8848 -5.87034 38.4249 -0.519746 -5.87034
44 2 57.3022 48.79 -5.00302 40.8456 -0.614593 -5.00302
45 2 56.076 48.0303 -7.92295 39.6194 -1.3743 -7.92295
46 1 57.8373 49.7063 -7.36365 41.3806 0.301742 -7.36365
47 2 60.2317 49.8639 -6.71122 43.775 0.459334 -6.71122
48 2 58.758 48.8274 -9.50171 42.3014 -0.577217 -9.50171
49 1 60.2301 47.5535 -7.7658 43.7734 -1.8511 -7.7658
50 2 62.5454 48.094 -6.93219 46.0888 -1.31059 -6.93219
51 2 61.5224 46.291 -9.5268 45.0658 -3.1136 -9.5268
52 1 63.0083 48.3823 -9.45997 46.5516 -1.02229 -9.45997
53 2 65.2479 48.918 -8.31604 48.7912 -0.486568 -8.31604
54 2 64.6542 46.9488 9.09395 48.1975 -2.45579 -10.906
55 1 65.9342 49.1984 9.25921 -1.93322 -0.206205 -10.7408
56 2 68.1511 49.8745 -9.61711 0.283677 0.469955 -9.61711
57 2 67.552 48.1593 7.61629 -0.315473 -1.24528 -12.3837
58 1 17.4374 50.2312 7.90021 0.980703 0.826613 -12.0998
59 2 3.03272 1.67627 9.16108 3.03272 1.67627 -10.8389
60 2 19.2308 49.1835 6.52786 2.77412 -0.221073 -13.4721
61 1 20.356 48.7092 8.7439 3.89933 -0.69533 -11.2561
62 2 22.3719 49.7042 9.91675 5.91526 0.299622 -10.0832
63 2 22.2203 47.5256 7.44602 5.76366 -1.87896 -12.554
64 1 23.1921 49.7855 7.4546 6.7354 0.38097 -12.5454
65 2 8.52824 1.4471 8.85325 8.52824 1.4471 -11.1467
66 2 25.2757 48.7612 6.43237 8.81901 -0.643369 -13.5676
67 1 26.0152 48.5821 8.80415 9.55853 -0.822485 -11.1959
68 2 27.4944 50.146 -9.7686 11.0378 0.74146 -9.7686
69 2 28.2926 47.7626 8.15289 11.836 -1.64193 -11.8471
70 1 28.8787 50.1321 8.12641 12.4221 0.727486 -11.8736
71 2 13.6766 2.23248 9.55528 13.6766 2.23248 -10.4447
72 2 31.2508 49.959 7.63421 14.7941 0.554469 -12.3658
73 1 31.6053 49.6766 10.0472 15.1486 0.272047 -9.95276
74 2 16.9358 1.64926 -8.75187 16.9358 1.64926 -8.75187
75 2 33.7702 49.1259 9.10583 17.3135 -0.278668 -10.8942
76 1 27.2522 9.06373 7.68748 27.2522 9.06373 7.68748
77 2 29.344 7.9918 7.25443 29.344 7.9918 7.25443
78 2 27.3616 9.49795 5.32821 27.3616 9.49795 5.32821
79 1 27.9062 7.0188 5.33331 27.9062 7.0188 5.33331
80 2 30.1966 6.05092 4.84183 30.1966 6.05092 4.84183
81 2 28.0435 7.18019 2.8185 28.0435 7.18019 2.8185
82 1 30.4235 7.87582 3.1534 30.4235 7.87582 3.1534
83 2 32.5362 6.81389 2.51489 32.5362 6.81389 2.51489
84 2 30.1347 7.97578 0.564366 30.1347 7.97578 0.564366
85 1 31.1211 5.73795 0.747802 31.1211 5.73795 0.747802
86 2 33.3125 4.72799 0.163725 33.3125 4.72799 0.163725
87 2 30.9711 5.65316 -1.82786 30.9711 5.65316 -1.82786
88 1 33.3372 6.52109 -1.54773 33.3372 6.52109 -1.54773
89 2 35.7151 5.68538 -1.89465 35.7151 5.68538 -1.89465
90 2 33.5441 6.48435 -4.17162 33.5441 6.48435 -4.17162
91 1 34.5266 4.2888 -3.62028 34.5266 4.2888 -3.62028
92 2 36.924 3.55152 -3.26471 36.924 3.55152 -3.26471
93 2 35.0531 3.86869 -6.01138 35.0531 3.86869 -6.01138
94 1 37.2722 4.99561 -5.32064 37.2722 4.99561 -5.32064
95 2 39.6459 4.36887 -4.76236 39.6459 4.36887 -4.76236
96 2 38.1017 4.65207 -7.65457 38.1017 4.65207 -7.65457
97 1 39.1334 2.6097 -6.50824 39.1334 2.6097 -6.50824
98 2 41.6046 2.33462 -5.84156 41.6046 2.33462 -5.84156
99 2 40.1027 1.95107 -8.83306 40.1027 1.95107 -8.83306
100 1 41.9854 3.42841 -8.03951 41.9854 3.42841 -8.03951
101 2 44.2524 3.20919 -7.58463 44.2524 3.20919 -7.58463
102 2 42.7383 2.89805 9.67457 42.7383 2.89805 -10.3254
103 1 44.0879 1.22572 -9.11807 44.0879 1.22572 -9.11807
104 2 46.4489 1.22628 -8.38017 46.4489 1.22628 -8.38017
105 2 61.5256 49.4516 8.87583 45.069 0.0470404 -11.1242
106 1 46.7872 1.89752 9.19664 46.7872 1.89752 -10.8034
107 2 49.1486 2.17667 -9.91321 49.1486 2.17667 -9.91321
108 2 64.6035 50.205 7.40287 48.1468 0.800427 -12.5971
109 1 49.7131 2.71298 7.74284 -1.69771 2.71298 -12.2572
110 2 51.982 3.17322 8.78177 0.571269 3.17322 -11.2182
111 2 51.1718 1.72417 5.9192 -0.238959 1.72417 -14.0808
112 1 52.6211 3.7567 6.3632 1.21035 3.7567 -13.6368
113 2 3.51918 4.3551 7.25796 3.51918 4.3551 -12.742
114 2 2.59601 2.5639 4.64813 2.59601 2.5639 -15.3519
115 1 3.88698 1.94386 6.84869 3.88698 1.94386 -13.1513
116 2 6.03041 2.69927 7.99971 6.03041 2.69927 -12.0003
117 2 22.0303 50.2338 5.32211 5.57361 0.829204 -14.6779
118 1 6.91924 3.00502 5.64267 6.91924 3.00502 -14.3573
119 2 8.71367 4.04315 7.02712 8.71367 4.04315 -12.9729
120 2 8.8977 2.13008 4.53634 8.8977 2.13008 -15.4637
121 1 9.66831 1.63404 6.7442 9.66831 1.63404 -13.2558
122 2 11.639 2.96095 7.37312 11.639 2.96095 -12.6269
123 2 28.0362 49.866 5.66753 11.5795 0.461471 -14.3325
124 1 25.261 13.1358 -7.84251 25.261 13.1358 12.1575
125 2 27.7151 12.5484 -8.27281 27.7151 12.5484 11.7272
126 2 25.427 13.0659 9.63544 25.427 13.0659 9.63544
127 1 26.5935 11.0468 -9.8332 26.5935 11.0468 10.1668
128 2 28.7996 10.0104 9.40254 28.7996 10.0104 9.40254
129 2 26.3657 11.375 7.70085 26.3657 11.375 7.70085
130 1 28.7964 11.9714 7.88756 28.7964 11.9714 7.88756
131 2 31.1048 11.0414 7.347 31.1048 11.0414 7.347
132 2 28.6973 12.08 5.37829 28.6973 12.08 5.37829
133 1 29.722 9.82998 5.68802 29.722 9.82998 5.68802
134 2 31.8331 8.77719 4.9308 31.8331 8.77719 4.9308
135 2 29.5478 10.1743 3.14061 29.5478 10.1743 3.14061
136 1 31.9709 10.7256 3.33673 31.9709 10.7256 3.33673
137 2 34.1186 9.84816 2.45481 34.1186 9.84816 2.45481
138 2 31.4624 10.8813 0.881229 31.4624 10.8813 0.881229
139 1 32.5751 8.65215 0.8175 32.5751 8.65215 0.8175
140 2 34.8032 7.8253 0.178919 34.8032 7.8253 0.178919
141 2 32.1442 8.72095 -1.61661 32.1442 8.72095 -1.61661
142 1 34.483 9.70236 -1.53766 34.483 9.70236 -1.53766
143 2 36.8067 8.8111 -1.88944 36.8067 8.8111 -1.88944
144 2 34.4894 9.57653 -3.94939 34.4894 9.57653 -3.94939
145 1 35.7321 7.46161 -3.73104 35.7321 7.46161 -3.73104
146 2 38.0814 6.51327 -3.50716 38.0814 6.51327 -3.50716
147 2 36.3979 7.28948 -6.19418 36.3979 7.28948 -6.19418
148 1 38.4586 8.20029 -5.36178 38.4586 8.20029 -5.36178
149 2 40.828 7.3699 -4.85286 40.828 7.3699 -4.85286
150 2 39.4787 7.91352 -7.69722 39.4787 7.91352 -7.69722
151 1 40.2722 5.82733 -6.70072 40.2722 5.82733 -6.70072
152 2 42.5858 5.04264 -6.1947 42.5858 5.04264 -6.1947
153 2 41.0246 5.43137 -9.07356 41.0246 5.43137 -9.07356
154 1 43.1283 6.60038 -8.13956 43.1283 6.60038 -8.13956
155 2 45.5421 6.06376 -8.21482 45.5421 6.06376 -8.21482
156 2 43.377 6.20016 9.35486 43.377 6.20016 -10.6451
157 1 44.6983 4.31293 -9.86706 44.6983 4.31293 -9.86706
158 2 47.142 3.95135 -9.35409 47.142 3.95135 -9.35409
159 2 45.4145 3.54776 7.91256 45.4145 3.54776 -12.0874
160 1 47.42 4.97142 8.37858 47.42 4.97142 -11.6214
161 2 49.7362 4.94476 9.06048 49.7362 4.94476 -10.9395
162 2 48.3045 4.08926 6.23677 48.3045 4.08926 -13.7632
163 1 50.1179 5.82863 6.67749 -1.29286 5.82863 -13.3225
164 2 52.5293 6.08789 7.47882 1.11855 6.08789 -12.5212
165 2 51.3751 5.01035 4.60932 -0.0356599 5.01035 -15.3907
166 1 53.0229 6.81401 5.16879 1.61215 6.81401 -14.8312
167 2 4.05801 7.07286 5.01474 4.05801 7.07286 -14.9853
168 2 2.38828 5.59898 3.0989 2.38828 5.59898 -16.9011
169 1 4.08835 4.57882 4.80889 4.08835 4.57882 -15.1911
170 2 6.01516 5.30923 6.24709 6.01516 5.30923 -13.7529
171 2 6.33187 4.45263 3.69249 6.33187 4.45263 -16.3075
172 1 21.762 17.9068 -5.08568 21.762 17.9068 14.9143
173 2 24.3505 17.6578 -4.83839 24.3505 17.6578 15.1616
174 2 22.4468 17.0993 -7.38646 22.4468 17.0993 12.6135
175 1 23.8282 15.4915 -6.06677 23.8282 15.4915 13.9332
176 2 26.2743 14.8008 -6.2558 26.2743 14.8008 13.7442
177 2 24.0997 15.1457 -8.58263 24.0997 15.1457 11.4174
178 1 26.1782 16.4873 -8.14619 26.1782 16.4873 11.8538
179 2 28.5056 15.56 -8.26622 28.5056 15.56 11.7338
180 2 26.5966 16.3423 9.33824 26.5966 16.3423 9.33824
181 1 27.5012 14.1848 -10.0189 27.5012 14.1848 9.98109
182 2 29.819 13.3159 9.70966 29.819 13.3159 9.70966
183 2 27.7186 14.1553 7.48858 27.7186 14.1553 7.48858
184 1 30.0061 14.9783 7.81517 30.0061 14.9783 7.81517
185 2 32.3335 14.0187 7.52143 32.3335 14.0187 7.52143
186 2 30.1964 15.123 5.24597 30.1964 15.123 5.24597
187 1 31.1153 12.8423 5.63673 31.1153 12.8423 5.63673
188 2 33.2893 11.9623 5.10969 33.2893 11.9623 5.10969
189 2 30.8873 12.916 3.05727 30.8873 12.916 3.05727
190 1 33.202 13.7405 3.37357 33.202 13.7405 3.37357
191 2 35.3847 12.6878 2.52795 35.3847 12.6878 2.52795
192 2 32.8018 14.0092 0.83118 32.8018 14.0092 0.83118
193 1 33.7416 11.7786 0.84501 33.7416 11.7786 0.84501
194 2 35.9387 10.7659 0.123873 35.9387 10.7659 0.123873
195 2 33.5073 12.1016 -1.68603 33.5073 12.1016 -1.68603
196 1 35.8797 12.7718 -1.46406 35.8797 12.7718 -1.46406
197 2 38.0923 11.8881 -1.91982 38.0923 11.8881 -1.91982
198 2 35.5644 12.7672 -3.84899 35.5644 12.7672 -3.84899
199 1 36.8663 10.5361 -3.66604 36.8663 10.5361 -3.66604
200 2 39.2499 9.60655 -3.51927 39.2499 9.60655 -3.51927
201 2 37.3533 10.3643 -6.20535 37.3533 10.3643 -6.20535
202 1 39.5966 11.3083 -5.4536 39.5966 11.3083 -5.4536
203 2 41.9615 10.6902 -4.99068 41.9615 10.6902 -4.99068
204 2 40.1949 10.8978 -7.73193 40.1949 10.8978 -7.73193
205 1 41.491 8.94054 -6.64362 41.491 8.94054 -6.64362
206 2 43.659 7.92001 -6.10443 43.659 7.92001 -6.10443
207 2 42.4155 8.78985 -8.99154 42.4155 8.78985 -8.99154
208 1 44.5125 9.6258 -7.74221 44.5125 9.6258 -7.74221
209 2 46.7684 8.66333 -8.37554 46.7684 8.66333 -8.37554
210 2 45.9063 9.37457 7.97142 45.9063 9.37457 -12.0286
211 1 45.3861 7.5643 9.72354 45.3861 7.5643 -10.2765
212 2 47.8624 6.81671 9.96326 47.8624 6.81671 -10.0367
213 2 45.992 6.69124 7.28943 45.992 6.69124 -12.7106
214 1 47.9753 8.21501 7.75741 47.9753 8.21501 -12.2426
215 2 50.3689 7.63639 8.29957 50.3689 7.63639 -11.7004
216 2 48.8636 7.46258 5.34971 48.8636 7.46258 -14.6503
217 1 50.7875 9.07923 6.14423 -0.623284 9.07923 -13.8558
218 2 53.3233 9.22947 5.96593 1.91256 9.22947 -14.0341
219 2 51.4303 8.19577 3.82284 0.0195461 8.19577 -16.1772
220 1 16.656 21.8179 -4.85253 16.656 21.8179 15.1475
221 2 18.9095 22.443 -4.00747 18.9095 22.443 15.9925
222 2 18.1088 20.7261 -6.53909 18.1088 20.7261 13.4609
223 1 19.4273 20.035 -4.59986 19.4273 20.035 15.4001
224 2 21.8692 20.2864 -4.12957 21.8692 20.2864 15.8704
225 2 20.3753 19.082 -6.69947 20.3753 19.082 13.3005
226 1 22.0593 20.9309 -6.41951 22.0593 20.9309 13.5805
227 2 24.4951 20.9023 -5.70487 24.4951 20.9023 14.2951
228 2 23.011 20.1498 -8.54374 23.011 20.1498 11.4563
229 1 24.3371 18.7884 -7.03194 24.3371 18.7884 12.9681
230 2 26.738 18.1289 -6.47716 26.738 18.1289 13.5228
231 2 25.0109 18.287 -9.30059 25.0109 18.287 10.6994
232 1 27.0291 19.4518 -8.69371 27.0291 19.4518 11.3063
233 2 29.4436 18.7951 -8.40272 29.4436 18.7951 11.5973
234 2 27.6424 19.0794 8.84286 27.6424 19.0794 8.84286
235 1 28.8494 17.185 9.83145 28.8494 17.185 9.83145
236 2 31.1692 16.1402 9.72463 31.1692 16.1402 9.72463
237 2 29.1239 17.1907 7.33001 29.1239 17.1907 7.33001
238 1 31.5233 18.0028 7.97149 31.5233 18.0028 7.97149
239 2 33.8227 17.1442 7.46073 33.8227 17.1442 7.46073
240 2 31.5446 18.0998 5.5068 31.5446 18.0998 5.5068
241 1 32.4924 15.8575 5.77609 32.4924 15.8575 5.77609
242 2 34.6448 14.7258 5.23666 34.6448 14.7258 5.23666
243 2 32.3463 16.1797 3.27584 32.3463 16.1797 3.27584
244 1 34.8768 16.7018 3.5903 34.8768 16.7018 3.5903
245 2 36.9173 15.7654 2.62589 36.9173 15.7654 2.62589
246 2 34.3313 17.0059 1.13663 34.3313 17.0059 1.13663
247 1 35.2577 14.7228 1.0148 35.2577 14.7228 1.0148
248 2 37.4691 13.8527 0.198232 37.4691 13.8527 0.198232
249 2 34.7111 14.9619 -1.39825 34.7111 14.9619 -1.39825
250 1 37.0844 15.9049 -1.42999 37.0844 15.9049 -1.42999
251 2 39.282 14.8453 -1.99407 39.282 14.8453 -1.99407
252 2 36.7809 15.8704 -3.95543 36.7809 15.8704 -3.95543
253 1 37.9405 13.6232 -3.71047 37.9405 13.6232 -3.71047
254 2 40.3956 12.7795 -3.60402 40.3956 12.7795 -3.60402
255 2 38.4549 13.3539 -6.1613 38.4549 13.3539 -6.1613
256 1 40.5583 14.4369 -5.45174 40.5583 14.4369 -5.45174
257 2 42.8602 13.7069 -5.2457 42.8602 13.7069 -5.2457
258 2 40.9212 14.1093 -7.8843 40.9212 14.1093 -7.8843
259 1 42.3071 12.1535 -7.15625 42.3071 12.1535 -7.15625
260 2 44.5524 11.6405 -6.06748 44.5524 11.6405 -6.06748
261 2 44.3849 11.2395 -9.82292 44.3849 11.2395 -9.82292
262 1 45.3084 12.8326 -8.1953 45.3084 12.8326 -8.1953
263 2 46.8598 11.1466 -7.47876 46.8598 11.1466 -7.47876
264 2 47.0759 12.1645 7.79447 47.0759 12.1645 -12.2055
265 1 46.8671 10.7218 -10.0634 46.8671 10.7218 -10.0634
266 2 49.0484 9.46751 9.77756 49.0484 9.46751 -10.2224
267 2 48.4304 10.1355 6.14161 48.4304 10.1355 -13.8584
268 1 49.5388 11.4856 8.14999 49.5388 11.4856 -11.85
269 2 51.7071 10.3035 8.14087 51.7071 10.3035 -11.8591
270 2 50.7717 11.7099 6.00871 50.7717 11.7099 -13.9913
271 1 13.7723 23.4717 -5.52432 13.7723 23.4717 14.4757
272 2 16.0723 24.2573 -4.6964 16.0723 24.2573 15.3036
273 2 15.4586 22.2932 -7.00457 15.4586 22.2932 12.9954
274 1 16.629 24.5017 -7.04834 16.629 24.5017 12.9517
275 2 18.7487 25.1366 -5.95152 18.7487 25.1366 14.0485
276 2 18.2319 23.2949 -8.66863 18.2319 23.2949 11.3314
277 1 19.376 22.798 -6.45673 19.376 22.798 13.5433
278 2 21.6986 23.1916 -5.53083 21.6986 23.1916 14.4692
279 2 20.7481 21.8144 -8.35635 20.7481 21.8144 11.6437
280 1 22.2379 23.7989 -7.94936 22.2379 23.7989 12.0506
281 2 24.4101 24.0074 -6.90231 24.4101 24.0074 13.0977
282 2 23.6955 23.0332 -9.80956 23.6955 23.0332 10.1904
283 1 24.7651 21.8677 -7.98764 24.7651 21.8677 12.0124
284 2 27.1216 21.5842 -7.23096 27.1216 21.5842 12.769
285 2 25.8623 21.1574 9.86765 25.8623 21.1574 9.86765
286 1 27.6338 22.7449 -9.3483 27.6338 22.7449 10.6517
287 2 30.1259 22.2595 -8.77213 30.1259 22.2595 11.2279
288 2 28.3944 22.0709 8.22923 28.3944 22.0709 8.22923
289 1 29.7373 20.3134 9.56037 29.7373 20.3134 9.56037
290 2 32.1949 19.5465 9.72663 32.1949 19.5465 9.72663
291 2 30.2626 20.0134 7.07419 30.2626 20.0134 7.07419
292 1 32.3105 21.1557 7.76857 32.3105 21.1557 7.76857
293 2 34.7435 20.3224 7.7015 34.7435 20.3224 7.7015
294 2 32.5776 20.9469 5.20094 32.5776 20.9469 5.20094
295 1 33.8866 18.9045 5.77523 33.8866 18.9045 5.77523
296 2 36.1913 17.9358 5.40735 36.1913 17.9358 5.40735
297 2 33.7922 18.9597 3.25961 33.7922 18.9597 3.25961
298 1 36.0879 19.861 3.67065 36.0879 19.861 3.67065
299 2 38.133 18.7102 2.97217 38.133 18.7102 2.97217
300 2 35.9138 20.1407 1.14728 35.9138 20.1407 1.14728
301 1 36.6556 17.7847 1.21848 36.6556 17.7847 1.21848
302 2 38.7014 16.8473 0.126423 38.7014 16.8473 0.126423
303 2 36.0104 18.1046 -1.15377 36.0104 18.1046 -1.15377
304 1 38.3706 18.8364 -1.4739 38.3706 18.8364 -1.4739
305 2 40.6497 18.453 -2.72499 40.6497 18.453 -2.72499
306 2 37.5493 18.8109 -3.85602 37.5493 18.8109 -3.85602
307 1 39.0952 16.7311 -3.65461 39.0952 16.7311 -3.65461
308 2 41.5885 15.7401 -3.59813 41.5885 15.7401 -3.59813
309 2 39.5545 16.5782 -6.06595 39.5545 16.5782 -6.06595
310 1 41.6833 17.6562 -5.22063 41.6833 17.6562 -5.22063
311 2 43.9181 16.6203 -5.31509 43.9181 16.6203 -5.31509
312 2 41.948 17.3912 -7.74782 41.948 17.3912 -7.74782
313 1 43.1483 15.2436 -7.33886 43.1483 15.2436 -7.33886
314 2 45.4843 14.6241 -6.40202 45.4843 14.6241 -6.40202
315 2 45.2999 14.3327 9.80374 45.2999 14.3327 -10.1963
316 1 46.3525 15.9482 -8.41161 46.3525 15.9482 -8.41161
317 2 47.7207 13.853 -7.92411 47.7207 13.853 -7.92411
318 2 48.485 16.0785 -9.85793 48.485 16.0785 -9.85793
319 1 47.7644 13.8378 9.53138 47.7644 13.8378 -10.4686
320 2 48.9944 11.9578 -9.37175 48.9944 11.9578 -9.37175
321 2 50.0852 13.825 8.90047 50.0852 13.825 -11.0995
322 1 10.9284 24.5523 -6.7243 62.3391 24.5523 13.2757
323 2 12.8372 25.8673 -5.66169 64.248 25.8673 14.3383
324 2 12.9504 23.4908 -7.95825 64.3611 23.4908 12.0417
325 1 13.824 25.8443 -7.97829 13.824 25.8443 12.0217
326 2 15.6784 26.8614 -6.69088 15.6784 26.8614 13.3091
327 2 15.8094 24.8081 -9.4557 15.8094 24.8081 10.5443
328 1 16.6703 27.0087 -9.05069 16.6703 27.0087 10.9493
329 2 18.7381 27.8199 -7.68207 18.7381 27.8199 12.3179
330 2 18.5041 26.2331 9.49501 18.5041 26.2331 9.49501
331 1 19.4884 25.4756 -8.29956 19.4884 25.4756 11.7004
332 2 21.6017 26.1077 -7.05108 21.6017 26.1077 12.9489
333 2 21.1137 24.6264 -9.98363 21.1137 24.6264 10.0164
334 1 22.4237 26.8068 -9.36204 22.4237 26.8068 10.638
335 2 24.4761 27.1513 -7.99291 24.4761 27.1513 12.0071
336 2 23.9885 25.9268 8.98705 23.9885 25.9268 8.98705
337 1 25.1521 24.9309 -9.0151 25.1521 24.9309 10.9849
338 2 27.5591 24.9843 -8.13206 27.5591 24.9843 11.8679
339 2 26.3485 24.0233 8.92436 26.3485 24.0233 8.92436
340 1 27.9345 25.899 9.67687 27.9345 25.899 9.67687
341 2 30.4517 25.5705 -9.53506 30.4517 25.5705 10.4649
342 2 29.0927 25.1684 7.54257 29.0927 25.1684 7.54257
343 1 30.2755 23.4833 8.97498 30.2755 23.4833 8.97498
344 2 32.7039 23.1039 9.3698 32.7039 23.1039 9.3698
345 2 31.1077 22.9555 6.54573 31.1077 22.9555 6.54573
346 1 33.1386 24.2912 7.21233 33.1386 24.2912 7.21233
347 2 35.5311 23.6291 7.31061 35.5311 23.6291 7.31061
348 2 33.5686 24.1119 4.72445 33.5686 24.1119 4.72445
349 1 34.8067 22.0206 5.66215 34.8067 22.0206 5.66215
350 2 37.1286 21.3382 5.52017 37.1286 21.3382 5.52017
351 2 34.9553 22.1268 3.09532 34.9553 22.1268 3.09532
352 1 37.233 22.927 3.5169 37.233 22.927 3.5169
353 2 39.5089 21.9863 3.09422 39.5089 21.9863 3.09422
354 2 37.1166 23.0938 1.11255 37.1166 23.0938 1.11255
355 1 38.3498 20.7279 1.34852 38.3498 20.7279 1.34852
356 2 40.274 19.6612 0.00962309 40.274 19.6612 0.00962309
357 2 37.6593 21.1767 -1.12838 37.6593 21.1767 -1.12838
358 1 40.0714 21.7179 -1.31815 40.0714 21.7179 -1.31815
359 2 41.7607 20.9607 -3.25645 41.7607 20.9607 -3.25645
360 2 38.8322 22.372 -3.48091 38.8322 22.372 -3.48091
361 1 39.6619 20.1171 -4.24556 39.6619 20.1171 -4.24556
362 2 43.5653 19.2587 -4.72052 43.5653 19.2587 -4.72052
363 2 40.3386 19.4428 -6.59127 40.3386 19.4428 -6.59127
364 1 42.3148 20.89 -6.14945 42.3148 20.89 -6.14945
365 2 44.8526 20.9208 -6.76373 44.8526 20.9208 -6.76373
366 2 42.8144 19.8638 -8.42345 42.8144 19.8638 -8.42345
367 1 44.3231 18.3562 -7.21172 44.3231 18.3562 -7.21172
368 2 46.6176 17.4981 -6.50534 46.6176 17.4981 -6.50534
369 2 44.1659 16.8326 -9.23808 44.1659 16.8326 -9.23808
370 1 57.0581 25.7782 9.64298 57.0581 25.7782 9.64298
371 2 57.2069 28.1657 -9.65506 57.2069 28.1657 10.3449
372 2 59.3857 25.5515 9.05431 59.3857 25.5515 9.05431
373 1 59.6581 25.3 -8.5025 59.6581 25.3 11.4975
374 2 9.67188 26.7677 -7.14601 61.0826 26.7677 12.854
375 2 10.4274 24.4031 -9.25753 61.8381 24.4031 10.7425
376 1 11.0617 26.8385 -9.18307 62.4725 26.8385 10.8169
377 2 12.7414 27.9983 -7.73529 64.1521 27.9983 12.2647
378 2 13.0585 25.9845 9.64494 64.4692 25.9845 9.64494
379 1 13.94 28.3011 9.96173 13.94 28.3011 9.96173
380 2 15.8228 29.2697 -8.70599 15.8228 29.2697 11.294
381 2 15.725 27.409 8.61244 15.725 27.409 8.61244
382 1 16.7525 29.5871 8.9536 16.7525 29.5871 8.9536
383 2 18.5309 30.7333 -9.69094 18.5309 30.7333 10.3091
384 2 18.662 28.652 7.68985 18.662 28.652 7.68985
385 1 19.6097 28.4534 10.0535 19.6097 28.4534 10.0535
386 2 21.598 28.9344 -8.41566 21.598 28.9344 11.5843
387 2 21.4453 27.5396 8.48148 21.4453 27.5396 8.48148
388 1 22.5773 29.7467 9.34968 22.5773 29.7467 9.34968
389 2 24.8257 30.4884 -9.68874 24.8257 30.4884 10.3113
390 2 24.1148 28.5387 7.71978 24.1148 28.5387 7.71978
391 1 25.2893 27.9371 9.79129 25.2893 27.9371 9.79129
392 2 27.6632 28.1592 -9.24899 27.6632 28.1592 10.751
393 2 26.6393 26.9558 7.84774 26.6393 26.9558 7.84774
394 1 28.1828 28.8975 8.44077 28.1828 28.8975 8.44077
395 2 30.4982 29.0888 9.20056 30.4982 29.0888 9.20056
396 2 29.4878 27.9388 6.42063 29.4878 27.9388 6.42063
397 1 30.7911 26.7538 8.27418 30.7911 26.7538 8.27418
398 2 33.2689 26.4707 8.66265 33.2689 26.4707 8.66265
399 2 31.6506 25.9603 5.95512 31.6506 25.9603 5.95512
400 1 33.5629 27.5551 6.4011 33.5629 27.5551 6.4011
401 2 35.9869 27.3066 6.77712 35.9869 27.3066 6.77712
402 2 34.1727 26.8971 4.111 34.1727 26.8971 4.111
403 1 35.6472 25.3271 5.3307 35.6472 25.3271 5.3307
404 2 38.0321 24.5973 5.17347 38.0321 24.5973 5.17347
405 2 35.8441 24.983 2.82199 35.8441 24.983 2.82199
406 1 38.1255 26.1642 3.22885 38.1255 26.1642 3.22885
407 2 40.5122 25.5675 2.9318 40.5122 25.5675 2.9318
408 2 38.1689 25.9157 0.678689 38.1689 25.9157 0.678689
409 1 39.4663 23.9158 1.35747 39.4663 23.9158 1.35747
410 2 41.6769 22.9692 0.382329 41.6769 22.9692 0.382329
411 2 39.1032 24.1444 -1.36893 39.1032 24.1444 -1.36893
412 1 41.4833 24.893 -1.27422 41.4833 24.893 -1.27422
413 2 43.1427 23.4581 -2.75261 43.1427 23.4581 -2.75261
414 2 40.7683 25.5782 -3.7576 40.7683 25.5782 -3.7576
415 1 41.1536 23.1782 -4.08437 41.1536 23.1782 -4.08437
416 2 42.97 23.4938 -5.70336 42.97 23.4938 -5.70336
417 2 40.0942 22.0477 -5.98451 40.0942 22.0477 -5.98451
418 1 51.7049 27.3568 6.2679 51.7049 27.3568 6.2679
419 2 51.9143 29.5892 7.24192 51.9143 29.5892 7.24192
420 2 53.9922 27.2048 5.55418 53.9922 27.2048 5.55418
421 1 54.35 26.4294 7.87346 54.35 26.4294 7.87346
422 2 54.525 28.69 8.80961 54.525 28.69 8.80961
423 2 56.6475 26.1991 7.30463 56.6475 26.1991 7.30463
424 1 56.8943 28.7495 7.9737 56.8943 28.7495 7.9737
425 2 58.6072 30.2457 9.0742 58.6072 30.2457 9.0742
426 2 59.0502 27.729 7.02326 59.0502 27.729 7.02326
427 1 59.6598 27.9493 9.53105 59.6598 27.9493 9.53105
428 2 61.5113 29.0823 -9.14023 61.5113 29.0823 10.8598
429 2 10.2207 26.9777 8.44724 61.6315 26.9777 8.44724
430 1 11.1755 29.3164 8.62115 62.5863 29.3164 8.62115
431 2 12.7918 30.6112 9.93931 64.2026 30.6112 9.93931
432 2 13.1125 28.4564 7.59778 64.5233 28.4564 7.59778
433 1 14.0038 30.836 7.80221 14.0038 30.836 7.80221
434 2 15.7303 31.9764 9.12564 15.7303 31.9764 9.12564
435 2 16.0156 29.9254 6.63099 16.0156 29.9254 6.63099
436 1 16.8831 32.3019 6.90751 16.8831 32.3019 6.90751
437 2 18.7308 33.2685 8.31873 18.7308 33.2685 8.31873
438 2 18.903 31.3038 5.75238 18.903 31.3038 5.75238
439 1 19.6741 30.9723 8.04471 19.6741 30.9723 8.04471
440 2 21.4007 31.9709 9.46635 21.4007 31.9709 9.46635
441 2 21.7374 30.1338 6.92745 21.7374 30.1338 6.92745
442 1 22.5619 32.3754 7.28881 22.5619 32.3754 7.28881
443 2 24.7154 33.1547 8.37809 24.7154 33.1547 8.37809
444 2 24.2145 31.1736 5.79098 24.2145 31.1736 5.79098
445 1 25.376 30.689 7.92787 25.376 30.689 7.92787
446 2 27.5356 31.2785 9.06779 27.5356 31.2785 9.06779
447 2 27.0133 29.5127 6.33445 27.0133 29.5127 6.33445
448 1 28.3122 31.7742 6.62156 28.3122 31.7742 6.62156
449 2 30.4074 32.0849 7.88097 30.4074 32.0849 7.88097
450 2 29.7211 30.7756 4.92425 29.7211 30.7756 4.92425
451 1 30.9365 29.7868 6.87895 30.9365 29.7868 6.87895
452 2 33.3644 29.7918 7.62918 33.3644 29.7918 7.62918
453 2 32.077 28.8987 4.83503 32.077 28.8987 4.83503
454 1 33.8373 30.7004 5.3009 33.8373 30.7004 5.3009
455 2 36.1961 30.569 5.94821 36.1961 30.569 5.94821
456 2 34.7499 29.9501 2.99825 34.7499 29.9501 2.99825
457 1 36.114 28.5031 4.49071 36.114 28.5031 4.49071
458 2 38.6452 28.0906 4.79867 38.6452 28.0906 4.79867
459 2 36.8706 28.0619 2.06567 36.8706 28.0619 2.06567
460 1 38.8939 29.4262 2.63845 38.8939 29.4262 2.63845
461 2 41.2079 28.5618 2.77414 41.2079 28.5618 2.77414
462 2 39.4067 29.2979 0.172855 39.4067 29.2979 0.172855
463 1 40.3415 27.1283 0.939234 40.3415 27.1283 0.939234
464 2 42.5291 26.2876 0.750633 42.5291 26.2876 0.750633
465 2 40.3243 27.0964 -1.5688 40.3243 27.0964 -1.5688
466 1 42.6556 27.8693 -1.25246 42.6556 27.8693 -1.25246
467 2 43.8916 25.7296 -1.50924 43.8916 25.7296 -1.50924
468 2 42.9353 28.258 -3.75691 42.9353 28.258 -3.75691
469 1 43.2332 25.8106 -3.95558 43.2332 25.8106 -3.95558
470 2 48.918 29.6201 4.83055 48.918 29.6201 4.83055
471 2 51.1479 28.0651 4.09463 51.1479 28.0651 4.09463
472 1 51.4084 30.4539 4.94286 51.4084 30.4539 4.94286
473 2 53.0827 31.9418 6.25563 53.0827 31.9418 6.25563
474 2 53.698 29.6515 3.96621 53.698 29.6515 3.96621
475 1 54.2062 29.5145 6.39076 54.2062 29.5145 6.39076
476 2 55.8691 31.008 7.68999 55.8691 31.008 7.68999
477 2 56.3745 28.7073 5.46897 56.3745 28.7073 5.46897
478 1 57.046 31.0627 5.46123 57.046 31.0627 5.46123
479 2 58.7378 32.3147 6.81394 58.7378 32.3147 6.81394
480 2 59.248 30.1186 4.48734 59.248 30.1186 4.48734
481 1 59.8608 30.0822 7.00033 59.8608 30.0822 7.00033
482 2 61.3045 31.4637 8.59121 61.3045 31.4637 8.59121
483 2 10.7302 29.3757 6.23919 62.141 29.3757 6.23919
484 1 11.2127 31.795 6.4232 62.6234 31.795 6.4232
485 2 12.8491 32.9842 7.91495 64.2599 32.9842 7.91495
486 2 13.3212 30.8198 5.38709 64.732 30.8198 5.38709
487 1 13.991 33.3119 5.61724 13.991 33.3119 5.61724
488 2 15.759 34.564 6.81251 15.759 34.564 6.81251
489 2 16.0723 32.2555 4.55417 16.0723 32.2555 4.55417
490 1 16.9013 34.6622 4.58235 16.9013 34.6622 4.58235
491 2 18.5829 35.866 6.09766 18.5829 35.866 6.09766
492 2 19.1285 33.7312 3.63242 19.1285 33.7312 3.63242
493 1 19.82 33.6363 6.02054 19.82 33.6363 6.02054
494 2 21.5268 34.7268 7.4309 21.5268 34.7268 7.4309
495 2 21.844 32.6858 4.93257 21.844 32.6858 4.93257
496 1 22.6858 34.9971 5.26471 22.6858 34.9971 5.26471
497 2 24.8465 35.7779 6.28696 24.8465 35.7779 6.28696
498 2 24.2909 33.6648 3.82125 24.2909 33.6648 3.82125
499 1 25.4836 33.3442 6.00369 25.4836 33.3442 6.00369
500 2 27.5823 34.0315 7.19345 27.5823 34.0315 7.19345
501 2 27.1725 32.2845 4.44019 27.1725 32.2845 4.44019
502 1 28.414 34.4861 4.83963 28.414 34.4861 4.83963
503 2 30.4548 35.1746 6.08376 30.4548 35.1746 6.08376
504 2 30.1344 33.5051 3.34522 30.1344 33.5051 3.34522
505 1 31.2119 32.747 5.48105 31.2119 32.747 5.48105
506 2 33.5247 32.9415 6.34693 33.5247 32.9415 6.34693
507 2 32.4635 31.8711 3.49651 32.4635 31.8711 3.49651
508 1 34.0282 33.7378 3.93391 34.0282 33.7378 3.93391
509 2 36.4823 33.8108 4.85119 36.4823 33.8108 4.85119
510 2 35.2864 32.8445 1.9486 35.2864 32.8445 1.9486
511 1 36.6266 31.5559 3.67679 36.6266 31.5559 3.67679
512 2 39.0803 31.3309 4.28513 39.0803 31.3309 4.28513
513 2 37.5307 31.0393 1.38523 37.5307 31.0393 1.38523
514 1 39.4934 32.5621 2.10843 39.4934 32.5621 2.10843
515 2 41.8616 31.9462 2.92257 41.8616 31.9462 2.92257
516 2 40.8455 32.3923 -0.19078 40.8455 32.3923 -0.19078
517 1 41.6337 30.2604 0.86111 41.6337 30.2604 0.86111
518 2 43.8766 29.7848 -0.148239 43.8766 29.7848 -0.148239
519 2 41.429 30.017 -1.67743 41.429 30.017 -1.67743
520 1 45.7069 32.4251 2.11145 45.7069 32.4251 2.11145
521 2 47.4521 33.5317 3.75284 47.4521 33.5317 3.75284
522 2 47.9529 32.0935 0.898263 47.9529 32.0935 0.898263
523 1 48.6707 31.4283 3.24269 48.6707 31.4283 3.24269
524 2 50.0554 32.5736 4.96308 50.0554 32.5736 4.96308
525 2 50.9429 30.8531 2.41202 50.9429 30.8531 2.41202
526 1 51.4449 33.1785 2.96278 51.4449 33.1785 2.96278
527 2 53.0385 34.366 4.37654 53.0385 34.366 4.37654
528 2 53.5205 32.4766 1.79019 53.5205 32.4766 1.79019
529 1 54.2841 32.1155 4.12185 54.2841 32.1155 4.12185
530 2 55.838 33.342 5.57668 55.838 33.342 5.57668
531 2 56.5407 31.2301 3.01592 56.5407 31.2301 3.01592
532 1 57.0473 33.6555 3.40406 57.0473 33.6555 3.40406
533 2 58.7693 34.7724 4.87024 58.7693 34.7724 4.87024
534 2 59.1086 32.7058 2.33822 59.1086 32.7058 2.33822
535 1 59.9309 32.5276 4.64624 59.9309 32.5276 4.64624
536 2 61.4037 34.0467 6.11159 61.4037 34.0467 6.11159
537 2 62.169 31.5878 3.95996 62.169 31.5878 3.95996
538 1 62.6425 34.061 3.93692 62.6425 34.061 3.93692
539 2 12.8683 35.4889 5.28587 64.2791 35.4889 5.28587
540 2 13.5611 33.0281 3.20289 64.9719 33.0281 3.20289
541 1 14.1577 35.4542 3.14549 14.1577 35.4542 3.14549
542 2 15.7102 36.8224 4.51095 15.7102 36.8224 4.51095
543 2 16.2956 34.6432 2.21859 16.2956 34.6432 2.21859
544 1 16.981 37.0271 2.41401 16.981 37.0271 2.41401
545 2 18.7513 38.4346 3.52067 18.7513 38.4346 3.52067
546 2 19.0827 35.7774 1.66667 19.0827 35.7774 1.66667
547 1 19.8274 36.2835 4.05503 19.8274 36.2835 4.05503