ITEM: TIMESTEP
4859000
ITEM: NUMBER OF ATOMS
810
ITEM: BOX BOUNDS xy xz yz pp pp pp
8.0341777045796159e-01 7.6219870215624042e+01 2.4005682986081535e+01
8.0582000660415243e-01 5.0210394993394715e+01 0.0000000000000000e+00
-1.0000000000000000e+01 1.0000000000000000e+01 0.0000000000000000e+00
ITEM: ATOMS id type x y z xu yu zu
1 1 23.8007 45.2822 9.96264 -0.204951 -4.12242 -10.0374
2 2 25.8806 46.1936 -9.06015 1.87491 -3.21102 -9.06015
3 2 25.3805 43.8464 8.8029 1.37479 -5.55816 -11.1971
4 1 26.6919 46.0676 8.56227 2.68624 -3.33695 -11.4377
5 2 28.8706 46.8989 9.47389 4.8649 -2.50564 -10.5261
6 2 28.3204 44.6657 7.25101 4.31474 -4.73885 -12.749
7 1 29.4971 44.4758 9.36136 5.49145 -4.92877 -10.6386
8 2 31.3347 45.6714 -9.52929 7.32897 -3.73314 -9.52929
9 2 31.4557 43.139 8.47959 7.45007 -6.26555 -11.5204
10 1 32.3617 45.5231 8.21173 8.35605 -3.88148 -11.7883
11 2 34.1211 46.8176 9.30233 10.1154 -2.58693 -10.6977
12 2 34.3229 44.2744 7.34026 10.3172 -5.13021 -12.6597
13 1 35.1707 44.5914 9.65613 11.165 -4.81313 -10.3439
14 2 36.5149 46.2892 -9.14395 12.5092 -3.1154 -9.14395
15 2 37.4067 43.6782 9.08261 13.401 -5.7264 -10.9174
16 1 37.9136 46.1252 8.80081 13.9079 -3.27933 -11.1992
17 2 39.6827 47.8496 9.78278 15.677 -1.555 -10.2172
18 2 40.0238 45.0727 7.99253 16.0181 -4.33183 -12.0075
19 1 40.7835 45.6387 -9.67043 16.7778 -3.7659 -9.67043
20 2 42.5451 46.9633 -8.45993 18.5394 -2.4413 -8.45993
21 2 42.9412 44.5043 9.42668 18.9355 -4.90023 -10.5733
22 1 43.5539 46.8979 9.3434 19.5482 -2.50664 -10.6566
23 2 45.49 48.448 -10.2522 21.4843 -0.956531 -10.2522
24 2 45.558 45.6074 8.718 21.5523 -3.79715 -11.282
25 1 46.3913 46.4617 -9.05897 22.3856 -2.94287 -9.05897
26 2 47.8975 47.9923 -7.63932 23.8918 -1.41225 -7.63932
27 2 48.7351 45.944 -9.67616 24.7295 -3.46056 -9.67616
28 1 35.6074 5.57641 5.75908 35.6074 5.57641 5.75908
29 2 37.4705 4.57813 4.43892 37.4705 4.57813 4.43892
30 2 34.8137 5.83792 3.29567 34.8137 5.83792 3.29567
31 1 35.556 3.46315 3.23806 35.556 3.46315 3.23806
32 2 37.5664 2.36373 2.31307 37.5664 2.36373 2.31307
33 2 34.8521 3.51128 0.794886 34.8521 3.51128 0.794886
34 1 37.2584 4.09407 0.542192 37.2584 4.09407 0.542192
35 2 39.3628 3.19746 -0.429591 39.3628 3.19746 -0.429591
36 2 36.5586 4.15248 -1.84534 36.5586 4.15248 -1.84534
37 1 37.5827 1.92991 -1.7752 37.5827 1.92991 -1.7752
38 2 63.9014 50.3294 -2.03615 39.8957 0.9248 -2.03615
39 2 37.5348 1.39319 -4.25941 37.5348 1.39319 -4.25941
40 1 39.8761 2.32165 -4.22842 39.8761 2.32165 -4.22842
41 2 42.3181 1.54494 -4.23449 42.3181 1.54494 -4.23449
42 2 40.0339 1.57356 -6.64414 40.0339 1.57356 -6.64414
43 1 65.1745 49.0508 -5.56221 41.1688 -0.353741 -5.56221
44 2 67.7562 48.6385 -5.40917 43.7506 -0.766104 -5.40917
45 2 65.6342 48.077 -8.05586 41.6285 -1.32754 -8.05586
46 1 67.685 49.4914 -7.82946 43.6793 0.0868051 -7.82946
47 2 70.1942 49.1932 -7.45459 46.1885 -0.211351 -7.45459
48 2 68.3995 48.4265 -10.0422 44.3939 -0.978028 -10.0422
49 1 69.8298 46.9901 -8.55246 45.8241 -2.41443 -8.55246
50 2 72.2343 47.1456 -7.71266 48.2286 -2.25893 -7.71266
51 2 70.9209 45.4369 9.82335 46.9152 -3.96772 -10.1766
52 1 72.6235 47.2836 9.80014 48.6179 -2.12098 -10.1999
53 2 74.9246 47.723 -9.41853 50.9189 -1.6816 -9.41853
54 2 73.884 45.9463 8.01723 49.8783 -3.45826 -11.9828
55 1 24.0102 47.949 8.06483 0.00447394 -1.45561 -11.9352
56 2 26.4106 48.5676 8.88192 2.40496 -0.836934 -11.1181
57 2 25.3046 46.4941 6.44936 1.29895 -2.91052 -13.5506
58 1 26.7996 48.5555 6.4152 2.79387 -0.849029 -13.5848
59 2 29.0436 49.2932 7.26554 5.03796 -0.11137 -12.7345
60 2 28.3438 47.1458 4.88142 4.33808 -2.25876 -15.1186
61 1 29.6051 46.8122 7.09196 5.59943 -2.59234 -12.908
62 2 31.5988 47.9085 8.06203 7.59313 -1.49605 -11.938
63 2 31.3384 45.5212 5.90141 7.33271 -3.88336 -14.0986
64 1 32.4444 47.754 5.66911 8.43876 -1.65055 -14.3309
65 2 34.4268 48.9261 6.8012 10.4211 -0.478437 -13.1988
66 2 34.316 46.3577 4.70773 10.3103 -3.0469 -15.2923
67 1 35.223 46.6652 7.0077 11.2173 -2.73941 -12.9923
68 2 36.9082 48.2607 8.07822 12.9025 -1.14385 -11.9218
69 2 37.3672 45.5899 6.44264 13.3615 -3.81463 -13.5574
70 1 38.0627 47.874 6.00959 14.057 -1.53054 -13.9904
71 2 39.609 49.4599 6.82926 15.6033 0.0553624 -13.1707
72 2 40.1609 46.94 5.28422 16.1553 -2.46455 -14.7158
73 1 40.8309 47.4346 7.6427 16.8252 -1.96996 -12.3573
74 2 42.484 48.9915 8.69729 18.4783 -0.413106 -11.3027
75 2 43.083 46.7265 6.96837 19.0773 -2.67812 -13.0316
76 1 35.0089 10.1926 -9.75268 35.0089 10.1926 10.2473
77 2 37.1633 9.08042 9.3584 37.1633 9.08042 9.3584
78 2 34.6211 10.1163 7.81719 34.6211 10.1163 7.81719
79 1 35.4225 7.82719 8.10784 35.4225 7.82719 8.10784
80 2 37.4297 6.90384 7.00829 37.4297 6.90384 7.00829
81 2 34.7421 7.89393 5.54656 34.7421 7.89393 5.54656
82 1 37.0152 8.61658 5.28824 37.0152 8.61658 5.28824
83 2 38.9633 7.40451 4.38795 38.9633 7.40451 4.38795
84 2 36.424 8.73636 2.76826 36.424 8.73636 2.76826
85 1 37.153 6.36369 2.85735 37.153 6.36369 2.85735
86 2 39.1764 5.32688 1.82292 39.1764 5.32688 1.82292
87 2 36.3826 6.44397 0.541878 36.3826 6.44397 0.541878
88 1 38.8596 7.17708 0.184753 38.8596 7.17708 0.184753
89 2 40.7861 5.94966 -0.781395 40.7861 5.94966 -0.781395
90 2 38.1798 7.28867 -2.25028 38.1798 7.28867 -2.25028
91 1 39.0183 4.83423 -2.23841 39.0183 4.83423 -2.23841
92 2 41.2155 3.69459 -2.65901 41.2155 3.69459 -2.65901
93 2 38.8047 4.55139 -4.65706 38.8047 4.55139 -4.65706
94 1 41.2413 5.27257 -4.70761 41.2413 5.27257 -4.70761
95 2 43.5478 4.31808 -4.93121 43.5478 4.31808 -4.93121
96 2 41.2323 4.80697 -7.17996 41.2323 4.80697 -7.17996
97 1 42.3452 2.63888 -6.43968 42.3452 2.63888 -6.43968
98 2 44.6832 1.99698 -6.46362 44.6832 1.99698 -6.46362
99 2 42.4469 1.94298 -8.82733 42.4469 1.94298 -8.82733
100 1 44.6704 3.18669 -8.66187 44.6704 3.18669 -8.66187
101 2 47.2158 2.50121 -8.62756 47.2158 2.50121 -8.62756
102 2 44.9168 2.26109 8.96182 44.9168 2.26109 -11.0382
103 1 70.3487 49.9258 -9.85354 46.343 0.52123 -9.85354
104 2 72.8559 49.756 -9.57098 48.8503 0.351414 -9.57098
105 2 71.1566 48.4398 8.1613 47.1509 -0.964814 -11.8387
106 1 48.9861 0.726828 8.08005 48.9861 0.726828 -11.92
107 2 51.45 0.990856 8.55707 51.45 0.990856 -11.4429
108 2 73.8979 48.8025 6.195 49.8922 -0.602033 -13.805
109 1 51.6307 1.21375 6.15358 0.219908 1.21375 -13.8464
110 2 2.53881 1.54094 6.98735 2.53881 1.54094 -13.0126
111 2 25.4399 49.2924 4.43253 1.43423 -0.112147 -15.5675
112 1 3.05834 1.76641 4.56868 3.05834 1.76641 -15.4313
113 2 5.3293 2.23896 5.52125 5.3293 2.23896 -14.4788
114 2 28.4093 50.0835 2.76808 4.40357 0.678878 -17.2319
115 1 29.6364 49.2003 4.82018 5.63069 -0.20424 -15.1798
116 2 31.7881 50.1212 5.96512 7.78241 0.716624 -14.0349
117 2 31.3085 47.9525 3.43617 7.3028 -1.45207 -16.5638
118 1 32.5497 50.2395 3.60001 8.54405 0.834951 -16.4
119 2 10.6268 1.62814 4.78622 10.6268 1.62814 -15.2138
120 2 34.554 49.5799 2.19197 10.5483 0.175299 -17.808
121 1 35.172 48.6629 4.40242 11.1663 -0.741678 -15.5976
122 2 37.3022 49.9649 4.99977 13.2965 0.560299 -15.0002
123 2 37.1298 47.3652 3.66541 13.1241 -2.03938 -16.3346
124 1 33.6116 15.1834 -5.76638 33.6116 15.1834 14.2336
125 2 35.8974 14.0733 -6.00096 35.8974 14.0733 13.999
126 2 33.7372 14.907 -8.21209 33.7372 14.907 11.7879
127 1 34.5128 12.5834 -7.56229 34.5128 12.5834 12.4377
128 2 36.6645 11.3989 -8.36782 36.6645 11.3989 11.6322
129 2 34.0544 12.4634 9.97939 34.0544 12.4634 9.97939
130 1 36.4202 13.2591 -10.083 36.4202 13.2591 9.917
131 2 38.6007 11.9122 9.25652 38.6007 11.9122 9.25652
132 2 36.1666 13.2047 7.45164 36.1666 13.2047 7.45164
133 1 36.9758 10.8869 7.6444 36.9758 10.8869 7.6444
134 2 38.8467 9.73082 6.66479 38.8467 9.73082 6.66479
135 2 36.2873 11.1448 5.25403 36.2873 11.1448 5.25403
136 1 38.6656 11.5036 4.98189 38.6656 11.5036 4.98189
137 2 40.6522 10.3401 3.98697 40.6522 10.3401 3.98697
138 2 38.0524 11.6844 2.59828 38.0524 11.6844 2.59828
139 1 38.8648 9.3029 2.62227 38.8648 9.3029 2.62227
140 2 40.8165 8.06416 1.53382 40.8165 8.06416 1.53382
141 2 38.0542 9.53031 0.280934 38.0542 9.53031 0.280934
142 1 40.5923 10.0179 -0.0725287 40.5923 10.0179 -0.0725287
143 2 42.5636 8.90433 -1.10451 42.5636 8.90433 -1.10451
144 2 39.6965 10.0785 -2.36106 39.6965 10.0785 -2.36106
145 1 40.6432 7.80158 -2.4623 40.6432 7.80158 -2.4623
146 2 42.7831 6.67251 -3.14741 42.7831 6.67251 -3.14741
147 2 40.257 7.58054 -4.90709 40.257 7.58054 -4.90709
148 1 42.6517 8.20605 -5.09114 42.6517 8.20605 -5.09114
149 2 44.8058 7.00324 -5.31791 44.8058 7.00324 -5.31791
150 2 42.7309 8.03138 -7.73515 42.7309 8.03138 -7.73515
151 1 43.5519 5.71953 -7.05141 43.5519 5.71953 -7.05141
152 2 45.9348 4.7839 -7.29993 45.9348 4.7839 -7.29993
153 2 43.4293 5.14435 -9.45018 43.4293 5.14435 -9.45018
154 1 45.8083 6.11405 -9.41696 45.8083 6.11405 -9.41696
155 2 48.163 5.19951 -9.58373 48.163 5.19951 -9.58373
156 2 45.8677 5.50148 8.06306 45.8677 5.50148 -11.9369
157 1 47.071 3.38998 8.93362 47.071 3.38998 -11.0664
158 2 49.5411 2.86323 9.23895 49.5411 2.86323 -10.7611
159 2 47.4914 2.30049 6.68928 47.4914 2.30049 -13.3107
160 1 49.4705 3.78409 6.96914 49.4705 3.78409 -13.0309
161 2 52.0833 3.55964 7.05772 52.0833 3.55964 -12.9423
162 2 50.0708 2.64143 4.81493 50.0708 2.64143 -15.1851
163 1 52.0542 4.27173 4.62763 0.6434 4.27173 -15.3724
164 2 3.09068 4.17436 5.42429 3.09068 4.17436 -14.5757
165 2 53.2563 2.95038 2.75071 1.8455 2.95038 -17.2493
166 1 3.47827 4.84178 3.14018 3.47827 4.84178 -16.8598
167 2 5.76775 5.06558 4.02033 5.76775 5.06558 -15.9797
168 2 4.49251 3.77811 1.30067 4.49251 3.77811 -18.6993
169 1 5.89163 2.66966 3.05235 5.89163 2.66966 -16.9477
170 2 8.27993 3.30589 2.95731 8.27993 3.30589 -17.0427
171 2 31.1087 50.4963 1.53141 7.10305 1.09176 -18.4686
172 1 30.4338 20.124 -3.03051 30.4338 20.124 16.9695
173 2 32.8773 19.7019 -2.81322 32.8773 19.7019 17.1868
174 2 30.9279 19.3296 -5.38666 30.9279 19.3296 14.6133
175 1 32.1648 17.5252 -4.15921 32.1648 17.5252 15.8408
176 2 34.7091 16.8136 -4.25793 34.7091 16.8136 15.7421
177 2 32.4718 17.2978 -6.63653 32.4718 17.2978 13.3635
178 1 34.8568 18.176 -6.27704 34.8568 18.176 13.723
179 2 37.182 17.2713 -6.4656 37.182 17.2713 13.5344
180 2 34.8287 17.7425 -8.71021 34.8287 17.7425 11.2898
181 1 36.1366 15.6805 -7.97368 36.1366 15.6805 12.0263
182 2 38.0885 14.3137 -8.44102 38.0885 14.3137 11.559
183 2 35.8657 15.6468 9.55519 35.8657 15.6468 9.55519
184 1 38.3236 16.0778 9.69997 38.3236 16.0778 9.69997
185 2 40.405 14.8874 8.79775 40.405 14.8874 8.79775
186 2 37.7288 15.952 7.23398 37.7288 15.952 7.23398
187 1 38.6931 13.6976 7.47121 38.6931 13.6976 7.47121
188 2 40.4748 12.5102 6.24529 40.4748 12.5102 6.24529
189 2 37.7643 13.8374 5.18789 37.7643 13.8374 5.18789
190 1 40.258 14.4045 4.64054 40.258 14.4045 4.64054
191 2 42.2987 13.3112 3.81677 42.2987 13.3112 3.81677
192 2 39.6325 14.4712 2.23612 39.6325 14.4712 2.23612
193 1 40.5548 12.1571 2.37173 40.5548 12.1571 2.37173
194 2 42.4474 11.105 1.2303 42.4474 11.105 1.2303
195 2 39.6637 12.2754 -0.0495759 39.6637 12.2754 -0.0495759
196 1 42.076 12.9311 -0.491415 42.076 12.9311 -0.491415
197 2 44.0077 11.7078 -1.44877 44.0077 11.7078 -1.44877
198 2 41.3868 13.0872 -2.79615 41.3868 13.0872 -2.79615
199 1 42.1641 10.6817 -2.79312 42.1641 10.6817 -2.79312
200 2 44.3339 9.52631 -3.65685 44.3339 9.52631 -3.65685
201 2 41.597 10.5259 -5.37465 41.597 10.5259 -5.37465
202 1 44.0719 11.2968 -5.54927 44.0719 11.2968 -5.54927
203 2 46.4068 10.1099 -5.80307 46.4068 10.1099 -5.80307
204 2 44.2709 10.8376 -7.97997 44.2709 10.8376 -7.97997
205 1 45.0962 8.56228 -7.2681 45.0962 8.56228 -7.2681
206 2 47.1624 7.30319 -7.54682 47.1624 7.30319 -7.54682
207 2 45.201 8.56003 10.1814 45.201 8.56003 -9.81864
208 1 47.6737 8.94438 -9.3679 47.6737 8.94438 -9.3679
209 2 49.7302 7.58297 -9.87256 49.7302 7.58297 -9.87256
210 2 48.4248 8.41664 6.67864 48.4248 8.41664 -13.3214
211 1 48.1209 6.58796 8.3279 48.1209 6.58796 -11.6721
212 2 50.5365 5.65534 8.27646 50.5365 5.65534 -11.7235
213 2 48.245 5.70769 5.86646 48.245 5.70769 -14.1335
214 1 50.4546 7.02015 6.01105 50.4546 7.02015 -13.989
215 2 52.885 6.27374 5.78511 52.885 6.27374 -14.2149
216 2 50.4755 6.11994 3.72086 50.4755 6.11994 -16.2791
217 1 52.7913 7.46142 3.6799 1.38055 7.46142 -16.3201
218 2 55.1718 7.3883 2.98034 3.76107 7.3883 -17.0197
219 2 52.5395 5.4827 2.23634 1.12876 5.4827 -17.7637
220 1 25.5883 24.2776 -3.15308 25.5883 24.2776 16.8469
221 2 27.8971 24.8932 -2.16071 27.8971 24.8932 17.8393
222 2 27.0923 23.1851 -4.86912 27.0923 23.1851 15.1309
223 1 28.2849 22.5062 -2.74911 28.2849 22.5062 17.2509
224 2 30.6888 22.4343 -2.06054 30.6888 22.4343 17.9395
225 2 29.2538 21.3926 -4.75697 29.2538 21.3926 15.243
226 1 31.0726 23.1125 -4.33012 31.0726 23.1125 15.6699
227 2 33.4699 22.8069 -3.69469 33.4699 22.8069 16.3053
228 2 31.8917 22.2769 -6.47015 31.8917 22.2769 13.5298
229 1 33.0918 20.7179 -5.02742 33.0918 20.7179 14.9726
230 2 35.4807 20.0465 -4.80932 35.4807 20.0465 15.1907
231 2 33.5519 19.9955 -7.42185 33.5519 19.9955 12.5781
232 1 35.7501 21.1839 -6.98816 35.7501 21.1839 13.0118
233 2 38.112 20.4053 -6.87877 38.112 20.4053 13.1212
234 2 36.0771 20.79 -9.43535 36.0771 20.79 10.5647
235 1 37.1709 18.6741 -8.53786 37.1709 18.6741 11.4621
236 2 39.5011 17.6946 -8.57989 39.5011 17.6946 11.4201
237 2 37.3094 18.3166 8.97219 37.3094 18.3166 8.97219
238 1 39.6688 19.009 9.35411 39.6688 19.009 9.35411
239 2 41.7725 17.664 8.65818 41.7725 17.664 8.65818
240 2 39.4118 18.9659 6.84642 39.4118 18.9659 6.84642
241 1 40.1713 16.5539 7.06605 40.1713 16.5539 7.06605
242 2 42.1505 15.2495 6.16471 42.1505 15.2495 6.16471
243 2 39.7693 16.8694 4.68157 39.7693 16.8694 4.68157
244 1 42.2208 17.1491 4.56479 42.2208 17.1491 4.56479
245 2 44.018 15.7928 3.3389 44.018 15.7928 3.3389
246 2 41.6179 17.6164 2.1961 41.6179 17.6164 2.1961
247 1 42.0483 15.1307 2.04975 42.0483 15.1307 2.04975
248 2 43.9927 13.9609 0.840638 43.9927 13.9609 0.840638
249 2 41.3187 15.3387 -0.286389 41.3187 15.3387 -0.286389
250 1 43.7115 15.8393 -0.753401 43.7115 15.8393 -0.753401
251 2 45.6086 14.6595 -1.79918 45.6086 14.6595 -1.79918
252 2 42.968 15.8813 -3.16161 42.968 15.8813 -3.16161
253 1 43.8324 13.5633 -3.12137 43.8324 13.5633 -3.12137
254 2 45.8581 12.2524 -4.08436 45.8581 12.2524 -4.08436
255 2 43.338 13.6785 -5.6335 43.338 13.6785 -5.6335
256 1 45.767 14.1528 -5.80272 45.767 14.1528 -5.80272
257 2 47.8924 12.9414 -6.20341 47.8924 12.9414 -6.20341
258 2 45.7469 13.9299 -8.27403 45.7469 13.9299 -8.27403
259 1 46.5988 11.539 -7.8367 46.5988 11.539 -7.8367
260 2 48.7341 10.3005 -7.56168 48.7341 10.3005 -7.56168
261 2 48.0729 10.6956 8.8363 48.0729 10.6956 -11.1637
262 1 49.5501 11.8155 -9.4495 49.5501 11.8155 -9.4495
263 2 51.0897 9.8449 -9.30618 51.0897 9.8449 -9.30618
264 2 50.0236 10.7912 6.31594 50.0236 10.7912 -13.6841
265 1 50.1884 9.41331 8.41662 50.1884 9.41331 -11.5834
266 2 52.0269 7.94499 7.6827 52.0269 7.94499 -12.3173
267 2 50.8032 8.89014 4.4001 50.8032 8.89014 -15.5999
268 1 52.4161 9.93402 6.04369 52.4161 9.93402 -13.9563
269 2 54.4798 8.47354 5.41738 54.4798 8.47354 -14.5826
270 2 53.2123 10.0132 3.61804 53.2123 10.0132 -16.382
271 1 22.8502 25.7794 -3.87644 22.8502 25.7794 16.1236
272 2 24.8937 26.5394 -2.6389 24.8937 26.5394 17.3611
273 2 24.6063 24.8997 -5.36699 24.6063 24.8997 14.633
274 1 25.7922 27.0236 -5.00387 25.7922 27.0236 14.9961
275 2 28.0413 27.6169 -3.99642 28.0413 27.6169 16.0036
276 2 27.3211 25.8228 -6.66167 27.3211 25.8228 13.3383
277 1 28.5181 25.1605 -4.52801 28.5181 25.1605 15.472
278 2 30.8322 25.5022 -3.62061 30.8322 25.5022 16.3794
279 2 29.8289 24.1392 -6.25439 29.8289 24.1392 13.7456
280 1 31.3727 26.0518 -5.94995 31.3727 26.0518 14.0501
281 2 33.7741 26.1531 -5.07142 33.7741 26.1531 14.9286
282 2 32.5268 24.7952 -7.81186 32.5268 24.7952 12.1881
283 1 33.8987 23.7843 -5.96942 33.8987 23.7843 14.0306
284 2 36.3873 23.1529 -5.66289 36.3873 23.1529 14.3371
285 2 34.4871 22.8887 -8.28811 34.4871 22.8887 11.7119
286 1 36.5432 24.2136 -7.94468 36.5432 24.2136 12.0553
287 2 38.978 23.6281 -7.58078 38.978 23.6281 12.4192
288 2 37.25 23.4974 9.68921 37.25 23.4974 9.68921
289 1 38.4421 21.6472 -9.02699 38.4421 21.6472 10.973
290 2 40.7067 20.5916 -8.99948 40.7067 20.5916 11.0005
291 2 38.5892 21.1938 8.5944 38.5892 21.1938 8.5944
292 1 40.9694 22.0977 8.92029 40.9694 22.0977 8.92029
293 2 43.2061 20.916 8.51786 43.2061 20.916 8.51786
294 2 40.9099 21.8187 6.40399 40.9099 21.8187 6.40399
295 1 41.828 19.504 6.91881 41.828 19.504 6.91881
296 2 43.8424 18.1624 6.1613 43.8424 18.1624 6.1613
297 2 41.3533 19.5057 4.56633 41.3533 19.5057 4.56633
298 1 43.9037 20.0269 4.41954 43.9037 20.0269 4.41954
299 2 45.8606 18.6649 3.42169 45.8606 18.6649 3.42169
300 2 43.4085 20.1974 1.9307 43.4085 20.1974 1.9307
301 1 44.098 17.8127 1.86711 44.098 17.8127 1.86711
302 2 45.8275 16.5987 0.556605 45.8275 16.5987 0.556605
303 2 43.1245 18.2302 -0.417638 43.1245 18.2302 -0.417638
304 1 45.6257 18.5899 -0.968048 45.6257 18.5899 -0.968048
305 2 47.5274 17.8219 -2.84382 47.5274 17.8219 -2.84382
306 2 44.2767 18.8446 -3.1235 44.2767 18.8446 -3.1235
307 1 45.3861 16.4924 -3.45884 45.3861 16.4924 -3.45884
308 2 47.4012 15.0396 -4.16398 47.4012 15.0396 -4.16398
309 2 45.0974 16.5621 -5.86323 45.0974 16.5621 -5.86323
310 1 47.6446 17.0197 -5.61843 47.6446 17.0197 -5.61843
311 2 49.6613 15.671 -6.34579 49.6613 15.671 -6.34579
312 2 47.2438 16.9276 -8.04198 47.2438 16.9276 -8.04198
313 1 48.2181 14.5279 -8.12792 48.2181 14.5279 -8.12792
314 2 50.4103 13.466 -7.79181 50.4103 13.466 -7.79181
315 2 49.1533 13.4826 8.78549 49.1533 13.4826 -11.2145
316 1 50.9074 14.7382 -9.85714 50.9074 14.7382 -9.85714
317 2 51.9414 12.4125 -9.80589 51.9414 12.4125 -9.80589
318 2 52.5001 14.4843 8.10627 52.5001 14.4843 -11.8937
319 1 51.1943 12.4719 7.72905 51.1943 12.4719 -12.2709
320 2 52.5476 10.5435 8.4039 52.5476 10.5435 -11.5961
321 2 52.7832 12.3766 5.69519 52.7832 12.3766 -14.3048
322 1 20.2011 27.0939 -4.82278 71.6119 27.0939 15.1772
323 2 22.2271 28.1827 -3.85351 73.6379 28.1827 16.1465
324 2 21.9833 26.0911 -6.21699 73.394 26.0911 13.783
325 1 23.1263 28.3143 -6.11535 23.1263 28.3143 13.8846
326 2 25.0419 29.422 -4.93243 25.0419 29.422 15.0676
327 2 24.8768 27.1414 -7.34399 24.8768 27.1414 12.656
328 1 25.9348 29.3925 -7.28327 25.9348 29.3925 12.7167
329 2 28.0597 30.2824 -6.25068 28.0597 30.2824 13.7493
330 2 27.7792 28.1396 -8.59767 27.7792 28.1396 11.4023
331 1 28.7819 27.9335 -6.36779 28.7819 27.9335 13.6322
332 2 30.9794 28.5103 -5.31487 30.9794 28.5103 14.6851
333 2 30.3014 26.7269 -8.01195 30.3014 26.7269 11.988
334 1 31.7401 28.6631 -7.78927 31.7401 28.6631 12.2107
335 2 34.1362 28.9403 -6.79356 34.1362 28.9403 13.2064
336 2 33.0875 27.4487 -9.65592 33.0875 27.4487 10.3441
337 1 34.3428 26.5723 -7.58417 34.3428 26.5723 12.4158
338 2 36.7072 26.3778 -6.73428 36.7072 26.3778 13.2657
339 2 35.3732 25.6036 -9.61146 35.3732 25.6036 10.3885
340 1 37.237 27.2231 -9.14554 37.237 27.2231 10.8545
341 2 39.7341 27.0071 -8.68208 39.7341 27.0071 11.3179
342 2 37.9676 26.2219 8.60201 37.9676 26.2219 8.60201
343 1 39.3559 24.7807 -9.71852 39.3559 24.7807 10.2815
344 2 41.7357 24.0179 -9.66989 41.7357 24.0179 10.3301
345 2 39.6233 23.9437 7.90335 39.6233 23.9437 7.90335
346 1 41.9011 25.1632 8.08742 41.9011 25.1632 8.08742
347 2 44.3106 24.2788 8.05135 44.3106 24.2788 8.05135
348 2 42.1894 24.5133 5.54996 42.1894 24.5133 5.54996
349 1 43.2994 22.5153 6.54772 43.2994 22.5153 6.54772
350 2 45.4158 21.3071 6.00459 45.4158 21.3071 6.00459
351 2 43.0988 22.2274 4.08194 43.0988 22.2274 4.08194
352 1 45.5446 22.9855 3.99546 45.5446 22.9855 3.99546
353 2 47.6251 21.7325 3.23621 47.6251 21.7325 3.23621
354 2 45.2271 22.9085 1.52831 45.2271 22.9085 1.52831
355 1 46.0012 20.5183 1.70816 46.0012 20.5183 1.70816
356 2 47.6364 19.1572 0.303585 47.6364 19.1572 0.303585
357 2 45.1441 20.9933 -0.541024 45.1441 20.9933 -0.541024
358 1 47.5501 21.302 -1.00446 47.5501 21.302 -1.00446
359 2 48.9443 20.251 -3.44176 48.9443 20.251 -3.44176
360 2 46.0489 22.0441 -2.91386 46.0489 22.0441 -2.91386
361 1 46.4643 19.7539 -4.00975 46.4643 19.7539 -4.00975
362 2 49.9434 18.1614 -5.50216 49.9434 18.1614 -5.50216
363 2 46.4997 19.1276 -6.39272 46.4997 19.1276 -6.39272
364 1 48.7974 20.2501 -6.18871 48.7974 20.2501 -6.18871
365 2 51.0166 19.8308 -7.41594 51.0166 19.8308 -7.41594
366 2 48.4999 19.7516 -8.5704 48.4999 19.7516 -8.5704
367 1 49.7424 17.5065 -7.97559 49.7424 17.5065 -7.97559
368 2 52.0475 16.3789 -8.09865 52.0475 16.3789 -8.09865
369 2 48.8635 16.0892 -9.99657 48.8635 16.0892 -9.99657
370 1 14.7718 27.707 -8.23002 66.1825 27.707 11.77
371 2 14.9568 30.1401 -8.1207 66.3676 30.1401 11.8793
372 2 17.1241 27.474 -8.90528 68.5349 27.474 11.0947
373 1 17.4503 27.718 -6.47411 68.8611 27.718 13.5259
374 2 19.1174 29.2653 -5.62291 70.5282 29.2653 14.3771
375 2 19.3666 26.4445 -7.09683 70.7774 26.4445 12.9032
376 1 20.3019 28.79 -7.75551 71.7126 28.79 12.2445
377 2 21.9221 30.4798 -6.53066 73.3329 30.4798 13.4693
378 2 22.4442 27.922 -8.52093 73.8549 27.922 11.4791
379 1 23.0832 30.3949 -8.74647 23.0832 30.3949 11.2535
380 2 24.8998 31.6525 -7.62017 24.8998 31.6525 12.3798
381 2 25.0793 29.1349 -9.60847 25.0793 29.1349 10.3915
382 1 26.0774 31.4169 -9.81063 26.0774 31.4169 10.1894
383 2 27.8775 32.5452 -8.66354 27.8775 32.5452 11.3365
384 2 28.121 30.2515 9.04187 28.121 30.2515 9.04187
385 1 28.9606 30.2293 -8.62446 28.9606 30.2293 11.3755
386 2 31.0245 31.073 -7.53326 31.0245 31.073 12.4667
387 2 30.5611 28.9852 -10.0285 30.5611 28.9852 9.97147
388 1 31.8062 31.1332 -9.93578 31.8062 31.1332 10.0642
389 2 33.9954 31.7134 -8.91527 33.9954 31.7134 11.0847
390 2 33.3214 29.7615 8.6294 33.3214 29.7615 8.6294
391 1 34.6194 29.3262 -9.22242 34.6194 29.3262 10.7776
392 2 37.0704 29.5713 -8.44878 37.0704 29.5713 11.5512
393 2 35.8299 28.0781 8.92008 35.8299 28.0781 8.92008
394 1 37.4681 30.0465 9.08986 37.4681 30.0465 9.08986
395 2 39.7978 30.1107 9.81206 39.7978 30.1107 9.81206
396 2 38.4818 28.9093 7.06071 38.4818 28.9093 7.06071
397 1 39.8736 27.738 8.77199 39.8736 27.738 8.77199
398 2 42.2544 27.2101 9.3805 42.2544 27.2101 9.3805
399 2 40.6887 26.8103 6.57883 40.6887 26.8103 6.57883
400 1 42.719 28.2212 7.07319 42.719 28.2212 7.07319
401 2 45.2033 27.4582 7.40801 45.2033 27.4582 7.40801
402 2 43.1652 27.4529 4.67966 43.1652 27.4529 4.67966
403 1 44.4248 25.6401 5.8812 44.4248 25.6401 5.8812
404 2 46.7707 24.6194 5.53503 46.7707 24.6194 5.53503
405 2 44.4681 25.2327 3.4288 44.4681 25.2327 3.4288
406 1 46.8718 26.1312 3.53302 46.8718 26.1312 3.53302
407 2 49.0411 24.9434 3.02763 49.0411 24.9434 3.02763
408 2 46.6275 25.8472 0.986929 46.6275 25.8472 0.986929
409 1 47.6642 23.5605 1.50836 47.6642 23.5605 1.50836
410 2 49.5562 22.4358 0.339983 49.5562 22.4358 0.339983
411 2 46.9213 23.7144 -0.946482 46.9213 23.7144 -0.946482
412 1 49.4521 24.2993 -1.28604 49.4521 24.2993 -1.28604
413 2 50.5238 22.6924 -2.8471 50.5238 22.6924 -2.8471
414 2 48.2664 24.9748 -3.41643 48.2664 24.9748 -3.41643
415 1 48.2632 22.6236 -3.82956 48.2632 22.6236 -3.82956
416 2 49.6629 22.7312 -5.86599 49.6629 22.7312 -5.86599
417 2 46.764 21.7357 -5.6452 46.764 21.7357 -5.6452
418 1 60.6261 28.8232 8.18215 60.6261 28.8232 8.18215
419 2 60.815 31.211 8.54607 60.815 31.211 8.54607
420 2 62.9954 28.4151 7.60911 62.9954 28.4151 7.60911
421 1 63.2913 28.3322 10.1466 63.2913 28.3322 10.1466
422 2 63.7182 30.6389 -9.73487 63.7182 30.6389 10.2651
423 2 14.1153 27.8076 9.36168 65.5261 27.8076 9.36168
424 1 66.0774 30.257 9.39169 66.0774 30.257 9.39169
425 2 16.3122 32.0385 -9.75035 67.723 32.0385 10.2497
426 2 16.8062 29.1883 8.67491 68.217 29.1883 8.67491
427 1 17.3526 29.8997 -8.85872 68.7634 29.8997 11.1413
428 2 19.2611 31.111 -7.87605 70.6718 31.111 12.124
429 2 19.3367 28.6703 -9.99037 70.7475 28.6703 10.0096
430 1 20.2757 30.9762 9.78893 71.6864 30.9762 9.78893
431 2 22.1093 32.5346 -9.38192 73.52 32.5346 10.6181
432 2 22.312 29.8149 9.01853 73.7228 29.8149 9.01853
433 1 23.2417 32.0211 8.54275 23.2417 32.0211 8.54275
434 2 24.8558 33.7014 9.6154 24.8558 33.7014 9.6154
435 2 25.524 30.8498 7.91452 25.524 30.8498 7.91452
436 1 26.1842 33.275 7.51237 26.1842 33.275 7.51237
437 2 27.8279 34.798 8.61041 27.8279 34.798 8.61041
438 2 28.2103 32.0594 6.71399 28.2103 32.0594 6.71399
439 1 29.0354 32.584 9.08401 29.0354 32.584 9.08401
440 2 31.0588 33.5772 10.064 31.0588 33.5772 10.064
441 2 30.6707 31.2039 7.86739 30.6707 31.2039 7.86739
442 1 31.8241 33.4601 7.71753 31.8241 33.4601 7.71753
443 2 33.9637 34.264 8.69425 33.9637 34.264 8.69425
444 2 33.51 32.0871 6.41386 33.51 32.0871 6.41386
445 1 34.6588 31.7865 8.6312 34.6588 31.7865 8.6312
446 2 36.8721 32.4685 9.49333 36.8721 32.4685 9.49333
447 2 36.1627 30.6006 7.04872 36.1627 30.6006 7.04872
448 1 37.5668 32.618 7.05573 37.5668 32.618 7.05573
449 2 39.8909 33.1831 7.89009 39.8909 33.1831 7.89009
450 2 38.9657 31.3976 5.32041 38.9657 31.3976 5.32041
451 1 40.3255 30.6317 7.4185 40.3255 30.6317 7.4185
452 2 42.8276 30.4737 8.12662 42.8276 30.4737 8.12662
453 2 41.3009 29.5984 5.42866 41.3009 29.5984 5.42866
454 1 43.1463 31.1195 5.7716 43.1463 31.1195 5.7716
455 2 45.6604 31.0283 6.24181 45.6604 31.0283 6.24181
456 2 44.0475 30.1234 3.67091 44.0475 30.1234 3.67091
457 1 45.3949 28.7413 5.21171 45.3949 28.7413 5.21171
458 2 47.6893 27.9728 5.18366 47.6893 27.9728 5.18366
459 2 45.7064 28.1191 2.71886 45.7064 28.1191 2.71886
460 1 47.9283 29.3368 3.0082 47.9283 29.3368 3.0082
461 2 50.177 28.1552 2.90166 50.177 28.1552 2.90166
462 2 48.2633 29.0322 0.522822 48.2633 29.0322 0.522822
463 1 49.0018 26.7241 1.16418 49.0018 26.7241 1.16418
464 2 51.0733 25.6236 0.403941 51.0733 25.6236 0.403941
465 2 48.3328 26.7441 -1.19106 48.3328 26.7441 -1.19106
466 1 50.7595 27.3105 -1.61603 50.7595 27.3105 -1.61603
467 2 51.8 25.0215 -2.00126 51.8 25.0215 -2.00126
468 2 50.4182 27.3132 -4.13808 50.4182 27.3132 -4.13808
469 1 50.6828 24.8127 -4.21448 50.6828 24.8127 -4.21448
470 2 58.2123 30.8651 6.44864 58.2123 30.8651 6.44864
471 2 60.2515 29.0066 5.75795 60.2515 29.0066 5.75795
472 1 60.6339 31.485 6.06117 60.6339 31.485 6.06117
473 2 62.245 33.1395 7.09543 62.245 33.1395 7.09543
474 2 62.7648 30.4323 5.38742 62.7648 30.4323 5.38742
475 1 63.2762 30.9021 7.80327 63.2762 30.9021 7.80327
476 2 64.8885 32.5248 8.85822 64.8885 32.5248 8.85822
477 2 65.4478 29.9124 6.94949 65.4478 29.9124 6.94949
478 1 66.1424 32.3491 6.63419 66.1424 32.3491 6.63419
479 2 67.8725 33.7948 7.68677 67.8725 33.7948 7.68677
480 2 16.8188 31.0663 5.94532 68.2295 31.0663 5.94532
481 1 17.5188 31.5701 8.17229 68.9296 31.5701 8.17229
482 2 19.1561 33.1381 9.2483 70.5668 33.1381 9.2483
483 2 19.5724 30.4322 7.46115 70.9832 30.4322 7.46115
484 1 20.4002 32.8125 7.08563 71.811 32.8125 7.08563
485 2 22.2444 34.2511 7.97313 73.6551 34.2511 7.97313
486 2 22.4997 31.5055 6.3036 73.9105 31.5055 6.3036
487 1 23.453 33.7813 5.77993 23.453 33.7813 5.77993
488 2 25.0088 35.5206 6.91963 25.0088 35.5206 6.91963
489 2 25.6514 32.8161 5.08457 25.6514 32.8161 5.08457
490 1 26.2641 35.2928 4.79441 26.2641 35.2928 4.79441
491 2 27.949 36.7486 5.90513 27.949 36.7486 5.90513
492 2 28.4372 34.0287 4.03288 28.4372 34.0287 4.03288
493 1 29.0268 34.5422 6.41497 29.0268 34.5422 6.41497
494 2 31.0761 35.8025 7.41423 31.0761 35.8025 7.41423
495 2 30.8992 33.2554 5.45146 30.8992 33.2554 5.45146
496 1 32.0183 35.4769 5.14223 32.0183 35.4769 5.14223
497 2 33.916 36.5157 6.26071 33.916 36.5157 6.26071
498 2 33.6665 34.2332 4.00794 33.6665 34.2332 4.00794
499 1 34.8102 34.2089 6.27479 34.8102 34.2089 6.27479
500 2 36.9565 34.992 7.46238 36.9565 34.992 7.46238
501 2 36.5872 33.0577 4.85206 36.5872 33.0577 4.85206
502 1 37.7832 35.1633 5.10115 37.7832 35.1633 5.10115
503 2 40.079 35.7084 6.00284 40.079 35.7084 6.00284
504 2 39.2007 33.8199 3.41164 39.2007 33.8199 3.41164
505 1 40.4986 33.2884 5.49798 40.4986 33.2884 5.49798
506 2 42.8791 33.5671 6.46137 42.8791 33.5671 6.46137
507 2 41.7742 32.0491 3.75975 41.7742 32.0491 3.75975
508 1 43.4207 33.9784 4.01595 43.4207 33.9784 4.01595
509 2 45.8086 34.1316 4.74964 45.8086 34.1316 4.74964
510 2 44.5485 32.8331 2.01325 44.5485 32.8331 2.01325
511 1 45.8947 31.7538 3.89315 45.8947 31.7538 3.89315
512 2 48.3306 31.3134 4.51396 48.3306 31.3134 4.51396
513 2 46.741 31.0456 1.64512 46.741 31.0456 1.64512
514 1 48.7975 32.4797 2.25601 48.7975 32.4797 2.25601
515 2 51.2583 31.783 2.85743 51.2583 31.783 2.85743
516 2 49.9699 32.2735 -0.09914 49.9699 32.2735 -0.09914
517 1 50.6959 29.8524 0.897562 50.6959 29.8524 0.897562
518 2 52.5223 28.417 -0.0929412 52.5223 28.417 -0.0929412
519 2 49.8628 29.6303 -1.50993 49.8628 29.6303 -1.50993
520 1 55.0151 32.6958 2.62165 55.0151 32.6958 2.62165
521 2 56.4116 33.9617 4.22615 56.4116 33.9617 4.22615
522 2 57.2346 32.1688 1.71602 57.2346 32.1688 1.71602
523 1 57.8644 31.9459 4.17922 57.8644 31.9459 4.17922
524 2 59.2137 33.5893 5.51169 59.2137 33.5893 5.51169
525 2 60.0955 31.084 3.54472 60.0955 31.084 3.54472
526 1 60.6456 33.5531 3.45471 60.6456 33.5531 3.45471
527 2 62.3721 35.0448 4.49009 62.3721 35.0448 4.49009
528 2 62.702 32.3859 2.51556 62.702 32.3859 2.51556
529 1 63.4319 32.769 4.98537 63.4319 32.769 4.98537
530 2 65.0763 34.4141 6.00502 65.0763 34.4141 6.00502
531 2 65.566 31.6672 4.29327 65.566 31.6672 4.29327
532 1 66.3689 34.0352 3.84038 66.3689 34.0352 3.84038
533 2 67.931 35.5448 4.92881 67.931 35.5448 4.92881
534 2 17.0521 32.8643 3.0555 68.4628 32.8643 3.0555
535 1 17.6432 33.3563 5.45229 69.0539 33.3563 5.45229
536 2 19.3202 34.9212 6.37857 70.731 34.9212 6.37857
537 2 19.7588 32.0899 4.73114 71.1696 32.0899 4.73114
538 1 20.5827 34.3143 4.21523 71.9935 34.3143 4.21523
539 2 22.1453 35.9467 5.33077 73.556 35.9467 5.33077
540 2 22.7555 33.3724 3.3979 74.1663 33.3724 3.3979
541 1 23.3991 35.8188 3.21804 23.3991 35.8188 3.21804
542 2 25.0819 37.3848 4.23676 25.0819 37.3848 4.23676
543 2 25.4575 34.4764 2.53874 25.4575 34.4764 2.53874
544 1 26.2996 36.9155 2.04508 26.2996 36.9155 2.04508
545 2 27.9591 38.4259 3.16902 27.9591 38.4259 3.16902
546 2 28.5202 35.7757 1.47064 28.5202 35.7757 1.47064