ITEM: TIMESTEP
5591000
ITEM: NUMBER OF ATOMS
810
ITEM: BOX BOUNDS xy xz yz pp pp pp
-2.2985253813511974e+01 5.2214187229542503e+01 -2.3788671583969936e+01
8.0582000660415243e-01 5.0210394993394715e+01 0.0000000000000000e+00
-1.0000000000000000e+01 1.0000000000000000e+01 0.0000000000000000e+00
ITEM: ATOMS id type x y z xu yu zu
1 1 27.6125 45.2876 9.41571 -0.00955961 -4.11694 -10.5843
2 2 30.0749 45.6749 10.1778 2.45285 -3.72963 -9.82216
3 2 28.8458 43.7121 7.75208 1.22371 -5.69244 -12.2479
4 1 30.4923 45.6479 7.61319 2.8702 -3.75663 -12.3868
5 2 -18.5433 46.3968 8.26367 5.24538 -3.00778 -11.7363
6 2 -19.5995 44.1385 6.15857 4.18915 -5.26604 -13.8414
7 1 -18.1419 43.9703 8.31263 5.64682 -5.43428 -11.6874
8 2 -16.078 45.0585 9.4463 7.71066 -4.34612 -10.5537
9 2 -16.3533 42.6044 7.29938 7.43532 -6.80018 -12.7006
10 1 -15.292 44.8464 7.04721 8.49666 -4.55821 -12.9528
11 2 -13.3773 46.2639 8.12939 10.4113 -3.14065 -11.8706
12 2 -13.3179 43.7153 6.02474 10.4708 -5.68925 -13.9753
13 1 -12.4487 43.9218 8.33918 11.34 -5.48277 -11.6608
14 2 -10.8755 45.5104 9.39865 12.9132 -3.89415 -10.6013
15 2 -10.4218 42.8237 7.54679 13.3668 -6.5809 -12.4532
16 1 -9.59941 45.2629 7.23118 14.1893 -4.14169 -12.7688
17 2 -7.80585 46.6435 8.48332 15.9828 -2.76108 -11.5167
18 2 -7.52144 44.1836 6.33121 16.2672 -5.22098 -13.6688
19 1 -6.77761 44.3207 8.68473 17.0111 -5.0839 -11.3153
20 2 -5.01495 45.6781 9.82094 18.7737 -3.72643 -10.1791
21 2 -4.83064 43.1128 7.7215 18.958 -6.29174 -12.2785
22 1 -3.96917 45.4453 7.60918 19.8195 -3.95925 -12.3908
23 2 -2.22566 46.93 8.47024 21.563 -2.47457 -11.5298
24 2 -1.93385 44.211 6.78892 21.8548 -5.19359 -13.2111
25 1 -1.10711 44.8097 9.16609 22.6816 -4.5949 -10.8339
26 2 0.835596 46.4627 -10.1446 24.6243 -2.94187 -10.1446
27 2 1.10305 44.0685 8.36168 24.8917 -5.33611 -11.6383
28 1 39.9347 6.42904 7.77265 39.9347 6.42904 7.77265
29 2 41.6312 5.18844 6.38376 41.6312 5.18844 6.38376
30 2 39.037 6.868 5.55212 39.037 6.868 5.55212
31 1 39.5313 4.3935 5.26824 39.5313 4.3935 5.26824
32 2 41.2738 3.13301 4.0416 41.2738 3.13301 4.0416
33 2 38.8415 4.8716 2.80927 38.8415 4.8716 2.80927
34 1 41.2171 5.03692 2.55445 41.2171 5.03692 2.55445
35 2 42.8739 3.8362 1.17107 42.8739 3.8362 1.17107
36 2 40.234 5.33977 0.203499 40.234 5.33977 0.203499
37 1 40.8273 2.91522 0.0517337 40.8273 2.91522 0.0517337
38 2 42.7094 1.5535 -0.870869 42.7094 1.5535 -0.870869
39 2 40.0627 2.82252 -2.2977 40.0627 2.82252 -2.2977
40 1 42.5215 3.24392 -2.78122 42.5215 3.24392 -2.78122
41 2 44.5362 1.8854 -3.22211 44.5362 1.8854 -3.22211
42 2 42.1787 2.88203 -5.25705 42.1787 2.88203 -5.25705
43 1 19.2224 49.9241 -4.66734 43.0111 0.51952 -4.66734
44 2 21.4979 48.9813 -4.92212 45.2866 -0.423255 -4.92212
45 2 19.1332 49.2533 -7.07404 42.9219 -0.151236 -7.07404
46 1 45.2212 0.764769 -7.09284 45.2212 0.764769 -7.09284
47 2 23.7557 49.3861 -7.178 47.5444 -0.0184986 -7.178
48 2 21.3455 49.2081 -9.37522 45.1341 -0.196473 -9.37522
49 1 22.7576 47.4056 -8.45001 46.5462 -1.99899 -8.45001
50 2 25.157 47.209 -7.91643 48.9457 -2.19558 -7.91643
51 2 23.3132 46.0123 9.53098 47.1019 -3.39231 -10.469
52 1 25.3104 47.6762 9.48802 49.0991 -1.72837 -10.512
53 2 27.8607 47.6206 -10.0949 51.6494 -1.78395 -10.0949
54 2 26.1971 46.1122 7.627 49.9857 -3.29236 -12.373
55 1 27.9999 47.9144 7.44936 0.377793 -1.4902 -12.5506
56 2 -20.9129 48.1605 7.92936 2.87576 -1.24408 -12.0706
57 2 28.9761 46.3577 5.717 1.35397 -3.04689 -14.283
58 1 -20.7638 48.2493 5.45734 3.02487 -1.15524 -14.5427
59 2 -18.2666 48.7316 6.11435 5.52205 -0.672999 -13.8857
60 2 -19.4669 46.7549 3.75933 4.32176 -2.64964 -16.2407
61 1 -18.0732 46.1722 5.88619 5.71545 -3.23234 -14.1138
62 2 -16.0544 47.2854 6.84652 7.73429 -2.11915 -13.1535
63 2 -16.462 44.8164 4.74574 7.32663 -4.5882 -15.2543
64 1 -15.241 47.0204 4.51724 8.54767 -2.38418 -15.4828
65 2 -13.4272 48.3656 5.58734 10.3614 -1.03901 -14.4127
66 2 -13.3415 45.8248 3.53791 10.4472 -3.57977 -16.4621
67 1 -12.3677 46.0964 5.82137 11.4209 -3.30818 -14.1786
68 2 -10.4749 47.5681 6.79254 13.3138 -1.8365 -13.2075
69 2 -10.5745 44.6793 4.97316 13.2142 -4.72523 -15.0268
70 1 -9.59013 46.9905 4.48011 14.1985 -2.41408 -15.5199
71 2 -7.80429 48.5384 5.13645 15.9844 -0.866127 -14.8636
72 2 -7.34832 45.7616 3.93872 16.4404 -3.643 -16.0613
73 1 -6.76408 46.5444 6.22187 17.0246 -2.86021 -13.7781
74 2 -4.42603 47.5263 6.39996 19.3626 -1.87825 -13.6
75 2 -4.83464 45.1055 5.33092 18.954 -4.29909 -14.6691
76 1 39.8266 11.0834 -7.65438 39.8266 11.0834 12.3456
77 2 41.8028 9.72886 -8.29553 41.8028 9.72886 11.7045
78 2 39.4913 11.0795 9.91381 39.4913 11.0795 9.91381
79 1 39.9976 8.58147 -9.68574 39.9976 8.58147 10.3143
80 2 41.869 7.44455 9.0512 41.869 7.44455 9.0512
81 2 39.2855 8.78277 7.92165 39.2855 8.78277 7.92165
82 1 41.7313 9.21776 7.4112 41.7313 9.21776 7.4112
83 2 43.4827 7.90467 6.24448 43.4827 7.90467 6.24448
84 2 40.9277 9.63277 5.18769 40.9277 9.63277 5.18769
85 1 41.4569 7.23017 5.00231 41.4569 7.23017 5.00231
86 2 43.2974 5.80101 3.73946 43.2974 5.80101 3.73946
87 2 40.7213 7.48597 2.66387 40.7213 7.48597 2.66387
88 1 43.1593 7.71223 2.25206 43.1593 7.71223 2.25206
89 2 44.663 6.26481 0.776261 44.663 6.26481 0.776261
90 2 42.2169 8.13902 -0.101055 42.2169 8.13902 -0.101055
91 1 42.6515 5.72501 -0.451575 42.6515 5.72501 -0.451575
92 2 44.4634 4.18428 -1.38848 44.4634 4.18428 -1.38848
93 2 41.9795 5.76095 -2.94292 41.9795 5.76095 -2.94292
94 1 44.4092 6.10283 -3.12916 44.4092 6.10283 -3.12916
95 2 46.3535 4.7087 -3.88032 46.3535 4.7087 -3.88032
96 2 43.7425 5.87921 -5.49212 43.7425 5.87921 -5.49212
97 1 44.6387 3.50425 -5.19248 44.6387 3.50425 -5.19248
98 2 46.7809 2.2318 -5.7003 46.7809 2.2318 -5.7003
99 2 44.1419 2.94351 -7.62855 44.1419 2.94351 -7.62855
100 1 46.5542 3.70192 -7.81367 46.5542 3.70192 -7.81367
101 2 48.7381 2.65514 -8.34911 48.7381 2.65514 -8.34911
102 2 46.1929 2.95249 9.70278 46.1929 2.95249 -10.2972
103 1 47.4045 1.00653 -9.4957 47.4045 1.00653 -9.4957
104 2 26.1608 49.7664 -9.34574 49.9495 0.361798 -9.34574
105 2 23.9108 49.4063 8.16542 47.6994 0.00167682 -11.8346
106 1 49.9002 1.16193 8.26218 49.9002 1.16193 -11.7378
107 2 -22.7941 50.1954 8.33131 52.4053 0.790852 -11.6687
108 2 26.4361 49.4375 6.02884 50.2248 0.0329461 -13.9712
109 1 0.880746 1.29988 5.88243 0.880746 1.29988 -14.1176
110 2 3.36934 1.18466 6.16296 3.36934 1.18466 -13.837
111 2 -22.3063 49.3093 3.87139 1.4824 -0.0953144 -16.1286
112 1 3.38777 1.62172 3.74526 3.38777 1.62172 -16.2547
113 2 5.8882 1.74192 4.27734 5.8882 1.74192 -15.7227
114 2 -19.4777 49.6292 1.84556 4.31094 0.224591 -18.1544
115 1 -18.0536 48.7081 3.62659 5.73506 -0.696444 -16.3734
116 2 -15.8395 49.4818 4.7142 7.94914 0.0772042 -15.2858
117 2 -16.4144 47.2725 2.19689 7.37424 -2.13204 -17.8031
118 1 -15.1398 49.5196 2.23499 8.64887 0.115041 -17.765
119 2 10.844 1.10428 2.53053 10.844 1.10428 -17.4695
120 2 -13.7043 47.9875 0.969408 10.0844 -1.41707 -19.0306
121 1 -12.4788 48.1466 3.17483 11.3099 -1.25794 -16.8252
122 2 -10.7432 49.2929 4.52808 13.0455 -0.111682 -15.4719
123 2 -10.2872 47.8445 2.13895 13.5015 -1.56009 -17.8611
124 1 38.5179 16.0676 -3.83941 38.5179 16.0676 16.1606
125 2 40.8821 15.2313 -4.28303 40.8821 15.2313 15.717
126 2 38.5585 15.8332 -6.36252 38.5585 15.8332 13.6375
127 1 39.3628 13.5545 -5.61723 39.3628 13.5545 14.3828
128 2 41.4182 12.2713 -6.04655 41.4182 12.2713 13.9534
129 2 39.2872 13.4974 -8.07773 39.2872 13.4974 11.9223
130 1 41.7137 13.8632 -7.91372 41.7137 13.8632 12.0863
131 2 43.5874 12.5306 -8.55633 43.5874 12.5306 11.4437
132 2 41.3127 13.7046 9.49938 41.3127 13.7046 9.49938
133 1 41.9557 11.4071 9.75074 41.9557 11.4071 9.75074
134 2 43.7173 9.94018 8.72889 43.7173 9.94018 8.72889
135 2 41.3157 11.6975 7.34984 41.3157 11.6975 7.34984
136 1 43.7963 11.8256 7.14437 43.7963 11.8256 7.14437
137 2 45.43 10.5142 5.79832 45.43 10.5142 5.79832
138 2 42.9465 12.278 4.79022 42.9465 12.278 4.79022
139 1 43.3361 9.8233 4.58442 43.3361 9.8233 4.58442
140 2 45.1704 8.56656 3.52299 45.1704 8.56656 3.52299
141 2 42.5463 10.1671 2.22024 42.5463 10.1671 2.22024
142 1 45.0685 10.4077 1.84722 45.0685 10.4077 1.84722
143 2 46.6525 8.75591 0.806534 46.6525 8.75591 0.806534
144 2 44.4071 10.8477 -0.548525 44.4071 10.8477 -0.548525
145 1 44.6168 8.32614 -0.58923 44.6168 8.32614 -0.58923
146 2 46.3011 6.85181 -1.75722 46.3011 6.85181 -1.75722
147 2 44 8.63308 -3.07545 44 8.63308 -3.07545
148 1 46.4693 8.76296 -3.42119 46.4693 8.76296 -3.42119
149 2 48.1689 7.14951 -4.44929 48.1689 7.14951 -4.44929
150 2 45.8106 8.86487 -5.90616 45.8106 8.86487 -5.90616
151 1 46.1823 6.29023 -5.84118 46.1823 6.29023 -5.84118
152 2 48.2007 4.97275 -6.38443 48.2007 4.97275 -6.38443
153 2 45.8185 6.11299 -8.2985 45.8185 6.11299 -8.2985
154 1 48.2081 6.58985 -8.42109 48.2081 6.58985 -8.42109
155 2 -1.15396 5.31344 -9.03814 50.2568 5.31344 -9.03814
156 2 47.7021 6.26868 9.13323 47.7021 6.26868 -10.8668
157 1 48.5801 3.9182 9.52026 48.5801 3.9182 -10.4797
158 2 50.9948 3.06225 9.37696 50.9948 3.06225 -10.623
159 2 48.6665 2.86715 7.15116 48.6665 2.86715 -12.8488
160 1 -0.50276 3.98928 7.10687 50.908 3.98928 -12.8931
161 2 1.89256 3.47225 6.62125 53.3033 3.47225 -13.3788
162 2 50.6523 2.9723 4.86876 50.6523 2.9723 -15.1312
163 1 1.33095 4.30951 4.29545 1.33095 4.30951 -15.7046
164 2 3.81703 3.92862 4.49106 3.81703 3.92862 -15.5089
165 2 1.80865 2.829 2.19786 1.80865 2.829 -17.8021
166 1 3.76768 4.52987 2.06159 3.76768 4.52987 -17.9384
167 2 6.27276 4.40098 2.82499 6.27276 4.40098 -17.175
168 2 4.81537 3.58433 0.106355 4.81537 3.58433 -19.8936
169 1 6.04783 2.06203 1.75271 6.04783 2.06203 -18.2473
170 2 8.46093 2.35291 1.06287 8.46093 2.35291 -18.9371
171 2 -16.8868 49.5369 0.398457 6.9019 0.132353 -19.6015
172 1 34.9784 21.1279 -2.11034 34.9784 21.1279 17.8897
173 2 37.4664 21.0063 -1.78346 37.4664 21.0063 18.2165
174 2 35.632 20.0711 -4.26299 35.632 20.0711 15.737
175 1 36.9505 18.7131 -2.76821 36.9505 18.7131 17.2318
176 2 39.3107 18.1158 -2.56657 39.3107 18.1158 17.4334
177 2 37.2893 17.8847 -5.00935 37.2893 17.8847 14.9906
178 1 39.4915 19.1068 -4.81687 39.4915 19.1068 15.1831
179 2 41.8408 18.1616 -4.80759 41.8408 18.1616 15.1924
180 2 39.6791 18.546 -7.35223 39.6791 18.546 12.6478
181 1 40.8713 16.5644 -6.40375 40.8713 16.5644 13.5963
182 2 43.0075 15.3903 -6.38423 43.0075 15.3903 13.6158
183 2 40.8153 16.0061 -8.80636 40.8153 16.0061 11.1936
184 1 43.1855 16.7144 -8.49366 43.1855 16.7144 11.5063
185 2 -5.99827 15.4108 -9.0215 45.4125 15.4108 10.9785
186 2 42.9884 16.4324 9.05161 42.9884 16.4324 9.05161
187 1 43.8254 14.1571 9.52494 43.8254 14.1571 9.52494
188 2 45.6607 12.9146 8.4031 45.6607 12.9146 8.4031
189 2 43.1197 14.2325 7.1101 43.1197 14.2325 7.1101
190 1 -5.94154 14.8127 6.74484 45.4692 14.8127 6.74484
191 2 -4.14579 13.3439 5.77288 47.265 13.3439 5.77288
192 2 44.9205 15.0327 4.32664 44.9205 15.0327 4.32664
193 1 45.3638 12.519 4.38059 45.3638 12.519 4.38059
194 2 47.1351 11.0809 3.25009 47.1351 11.0809 3.25009
195 2 44.6099 12.8303 1.9233 44.6099 12.8303 1.9233
196 1 -4.23924 12.9721 1.56642 47.1715 12.9721 1.56642
197 2 -2.47529 11.5898 0.376568 48.9355 11.5898 0.376568
198 2 -4.98041 13.2124 -0.783963 46.4304 13.2124 -0.783963
199 1 46.8963 10.7367 -0.839662 46.8963 10.7367 -0.839662
200 2 -2.92802 9.23048 -2.14906 48.4827 9.23048 -2.14906
201 2 46.0936 11.1386 -3.19118 46.0936 11.1386 -3.19118
202 1 -2.9026 11.3035 -3.69764 48.5082 11.3035 -3.69764
203 2 -1.14143 9.88349 -4.82221 50.2693 9.88349 -4.82221
204 2 -3.62488 11.5152 -6.22537 47.7859 11.5152 -6.22537
205 1 -3.15389 9.08219 -6.15303 48.2569 9.08219 -6.15303
206 2 -1.3571 7.45641 -6.86633 50.0537 7.45641 -6.86633
207 2 47.8016 9.122 -8.76989 47.8016 9.122 -8.76989
208 1 -1.06178 9.20626 -8.80932 50.349 9.20626 -8.80932
209 2 0.649497 7.52483 -9.57367 52.0603 7.52483 -9.57367
210 2 -0.931295 8.73212 7.27869 50.4795 8.73212 -12.7213
211 1 -1.25735 6.82473 8.9564 50.1534 6.82473 -11.0436
212 2 0.907777 5.55475 8.44433 52.3185 5.55475 -11.5557
213 2 49.6256 6.0295 6.56036 49.6256 6.0295 -13.4396
214 1 0.604237 7.0177 6.3081 52.015 7.0177 -13.6919
215 2 2.72123 6.03549 5.63478 54.132 6.03549 -14.3652
216 2 -0.0703962 6.35541 3.97057 51.3404 6.35541 -16.0294
217 1 2.32439 7.49397 3.4963 2.32439 7.49397 -16.5037
218 2 4.56081 6.98646 2.31628 4.56081 6.98646 -17.6837
219 2 1.5737 5.66987 2.00071 1.5737 5.66987 -17.9993
220 1 30.0086 25.3157 -2.62917 30.0086 25.3157 17.3708
221 2 32.4096 25.8979 -1.78943 32.4096 25.8979 18.2106
222 2 31.5603 24.1556 -4.25722 31.5603 24.1556 15.7428
223 1 32.701 23.4485 -2.19843 32.701 23.4485 17.8016
224 2 35.0748 23.5211 -1.46153 35.0748 23.5211 18.5385
225 2 33.8113 22.2519 -4.06894 33.8113 22.2519 15.9311
226 1 35.4509 24.05 -3.82496 35.4509 24.05 16.175
227 2 37.951 23.7872 -3.20708 37.951 23.7872 16.7929
228 2 36.3409 22.9014 -5.86813 36.3409 22.9014 14.1319
229 1 37.6406 21.6358 -4.15239 37.6406 21.6358 15.8476
230 2 40.0325 21.2412 -3.64546 40.0325 21.2412 16.3545
231 2 38.2163 20.7388 -6.34329 38.2163 20.7388 13.6567
232 1 40.3775 22.1395 -5.94629 40.3775 22.1395 14.0537
233 2 -8.63318 21.4617 -5.62556 42.7776 21.4617 14.3744
234 2 40.6729 21.1042 -8.33789 40.6729 21.1042 11.6621
235 1 42.0387 19.4611 -6.97501 42.0387 19.4611 13.025
236 2 -6.95093 18.4666 -7.07366 44.4598 18.4666 12.9263
237 2 42.1717 18.8364 -9.49759 42.1717 18.8364 10.5024
238 1 -6.90708 19.6689 -9.12093 44.5037 19.6689 10.8791
239 2 -4.62083 18.6463 -9.55051 46.7899 18.6463 10.4495
240 2 -6.97977 19.2502 8.39855 44.431 19.2502 8.39855
241 1 -5.95371 17.1046 9.1141 45.4571 17.1046 9.1141
242 2 -4.13094 15.6736 8.20759 47.2798 15.6736 8.20759
243 2 -6.48709 17.235 6.58321 44.9237 17.235 6.58321
244 1 -4.05334 17.4812 6.40549 47.3574 17.4812 6.40549
245 2 -2.16246 16.0394 5.45849 49.2483 16.0394 5.45849
246 2 -4.51303 17.612 3.88801 46.8977 17.612 3.88801
247 1 -3.95025 15.1652 4.02404 47.4605 15.1652 4.02404
248 2 -2.21291 13.6418 2.84549 49.1979 13.6418 2.84549
249 2 -4.65406 15.4514 1.65754 46.7567 15.4514 1.65754
250 1 -2.10635 15.5519 1.17879 49.3044 15.5519 1.17879
251 2 -0.347135 14.2791 0.0656763 51.0636 14.2791 0.0656763
252 2 -3.01516 15.8855 -1.21043 48.3956 15.8855 -1.21043
253 1 -2.45679 13.4719 -1.19066 48.954 13.4719 -1.19066
254 2 -0.878989 12.0522 -2.49635 50.5318 12.0522 -2.49635
255 2 -3.45534 13.7295 -3.3901 47.9554 13.7295 -3.3901
256 1 -0.976932 13.9423 -4.19912 50.4338 13.9423 -4.19912
257 2 0.822551 12.479 -5.18647 52.2333 12.479 -5.18647
258 2 -1.76677 14.1254 -6.53365 49.644 14.1254 -6.53365
259 1 -1.08801 11.6772 -6.62395 50.3228 11.6772 -6.62395
260 2 0.649425 10.0652 -7.10861 52.0602 10.0652 -7.10861
261 2 -0.571211 11.0265 9.50377 50.8396 11.0265 -10.4962
262 1 1.25598 11.6682 -8.79507 52.6668 11.6682 -8.79507
263 2 2.59391 9.60406 -9.26474 54.0047 9.60406 -9.26474
264 2 0.646526 11.1351 6.85701 52.0573 11.1351 -13.143
265 1 1.12361 9.32339 8.69076 52.5344 9.32339 -11.3092
266 2 2.64707 7.84529 7.57164 54.0578 7.84529 -12.4284
267 2 0.574629 9.00774 4.73526 51.9854 9.00774 -15.2647
268 1 2.59542 9.92145 5.82089 54.0062 9.92145 -14.1791
269 2 4.33876 8.29709 4.98466 55.7495 8.29709 -15.0153
270 2 2.8397 9.99848 3.29579 54.2505 9.99848 -16.7042
271 1 27.2137 26.8615 -3.50979 27.2137 26.8615 16.4902
272 2 29.5162 27.7532 -2.88083 29.5162 27.7532 17.1192
273 2 28.7001 25.3763 -4.80625 28.7001 25.3763 15.1938
274 1 30.0061 27.4501 -5.20476 30.0061 27.4501 14.7952
275 2 32.1344 28.6715 -4.31518 32.1344 28.6715 15.6848
276 2 31.8307 26.1926 -6.49769 31.8307 26.1926 13.5023
277 1 32.863 26.2949 -4.18665 32.863 26.2949 15.8133
278 2 35.2478 26.5403 -3.43359 35.2478 26.5403 16.5664
279 2 34.095 24.7382 -5.82444 34.095 24.7382 14.1756
280 1 35.8056 26.6603 -5.87604 35.8056 26.6603 14.124
281 2 38.0527 26.9302 -4.91635 38.0527 26.9302 15.0836
282 2 36.9323 25.3845 -7.57739 36.9323 25.3845 12.4226
283 1 38.2168 24.5713 -5.59414 38.2168 24.5713 14.4059
284 2 40.722 24.4626 -5.08024 40.722 24.4626 14.9198
285 2 39.0619 23.393 -7.75205 39.0619 23.393 12.248
286 1 -10.5279 25.0731 -7.47014 40.8829 25.0731 12.5299
287 2 -8.13761 24.7117 -6.97527 43.2732 24.7117 13.0247
288 2 -9.67651 23.9393 -9.66276 41.7343 23.9393 10.3372
289 1 -8.46257 22.4614 -7.97395 42.9482 22.4614 12.0261
290 2 -6.0542 21.7737 -7.93017 45.3566 21.7737 12.0698
291 2 -8.23079 21.5843 9.67027 43.18 21.5843 9.67027
292 1 -5.98015 22.7574 9.76012 45.4306 22.7574 9.76012
293 2 -3.55772 21.8632 9.74389 47.8531 21.8632 9.74389
294 2 -5.75445 22.088 7.34194 45.6563 22.088 7.34194
295 1 -4.64209 20.0271 8.33613 46.7687 20.0271 8.33613
296 2 -2.52256 18.7252 7.94969 48.8882 18.7252 7.94969
297 2 -4.85863 19.8419 5.91599 46.5521 19.8419 5.91599
298 1 -2.28139 20.2986 6.01558 49.1294 20.2986 6.01558
299 2 -0.428721 18.8244 5.17886 50.982 18.8244 5.17886
300 2 -2.87343 20.1788 3.56875 48.5373 20.1788 3.56875
301 1 -2.11072 17.8135 3.6815 49.3001 17.8135 3.6815
302 2 -0.300601 16.5701 2.65396 51.1102 16.5701 2.65396
303 2 -2.73395 18.0338 1.26329 48.6768 18.0338 1.26329
304 1 -0.366305 18.3535 0.9648 51.0445 18.3535 0.9648
305 2 1.89474 16.9567 -1.84537 53.3055 16.9567 -1.84537
306 2 -1.46873 18.5362 -1.36347 49.942 18.5362 -1.36347
307 1 -0.58544 16.1226 -1.575 50.8253 16.1226 -1.575
308 2 1.03751 14.4781 -2.82854 52.4483 14.4781 -2.82854
309 2 -1.37283 16.3216 -3.92428 50.0379 16.3216 -3.92428
310 1 1.16752 16.4435 -4.29223 52.5783 16.4435 -4.29223
311 2 2.66775 14.9651 -5.64514 54.0785 14.9651 -5.64514
312 2 0.154139 16.8419 -6.48591 51.5649 16.8419 -6.48591
313 1 0.648704 14.3719 -7.01399 52.0595 14.3719 -7.01399
314 2 2.7359 12.9016 -7.32702 54.1467 12.9016 -7.32702
315 2 0.870036 13.5686 9.52608 52.2808 13.5686 -10.4739
316 1 3.00237 14.3992 -9.47262 54.4131 14.3992 -9.47262
317 2 3.62763 12.0951 -9.80991 55.0384 12.0951 -9.80991
318 2 3.89569 14.4034 8.16041 55.3065 14.4034 -11.8396
319 1 2.38345 12.3937 8.02013 53.7942 12.3937 -11.9799
320 2 3.56582 10.2541 8.07535 54.9766 10.2541 -11.9247
321 2 3.64675 12.1774 5.88465 55.0575 12.1774 -14.1153
322 1 24.5045 27.7606 -4.89808 75.9152 27.7606 15.1019
323 2 26.4812 29.1705 -4.25535 77.892 29.1705 15.7447
324 2 26.2565 26.3987 -5.70935 77.6672 26.3987 14.2906
325 1 27.2497 28.6035 -6.5171 27.2497 28.6035 13.4829
326 2 29.1329 29.8107 -5.36233 29.1329 29.8107 14.6377
327 2 29.0848 27.2676 -7.5634 29.0848 27.2676 12.4366
328 1 30.2353 29.5556 -7.72542 30.2353 29.5556 12.2746
329 2 32.1641 30.7521 -6.81672 32.1641 30.7521 13.1833
330 2 31.9971 28.155 -8.82438 31.9971 28.155 11.1756
331 1 32.9883 28.4262 -6.56848 32.9883 28.4262 13.4315
332 2 35.4268 29.0478 -5.72313 35.4268 29.0478 14.2769
333 2 34.5377 26.9545 -8.03587 34.5377 26.9545 11.9641
334 1 35.9601 29.0347 -8.16278 35.9601 29.0347 11.8372
335 2 38.0929 29.8471 -7.24377 38.0929 29.8471 12.7562
336 2 37.407 27.6954 -9.70419 37.407 27.6954 10.2958
337 1 38.6081 27.3229 -7.43961 38.6081 27.3229 12.5604
338 2 -10.3807 27.4164 -6.74431 41.03 27.4164 13.2557
339 2 39.515 26.0192 -9.3111 39.515 26.0192 10.6889
340 1 -10.0793 27.9055 -9.24132 41.3315 27.9055 10.7587
341 2 -7.54632 27.803 -8.58588 43.8645 27.803 11.4141
342 2 -9.11232 26.7301 8.78395 42.2984 26.7301 8.78395
343 1 -7.82281 25.4697 -9.423 43.588 25.4697 10.577
344 2 -5.31284 24.9016 -9.15099 46.0979 24.9016 10.849
345 2 -7.31864 24.2847 8.45667 44.0921 24.2847 8.45667
346 1 -5.22856 25.687 8.50813 46.1822 25.687 8.50813
347 2 -2.73121 25.1209 8.96342 48.6796 25.1209 8.96342
348 2 -4.66305 24.8784 6.28952 46.7477 24.8784 6.28952
349 1 -3.53937 23.0498 7.60111 47.8714 23.0498 7.60111
350 2 -1.17388 22.0188 7.39881 50.2369 22.0188 7.39881
351 2 -3.47931 22.384 5.19331 47.9315 22.384 5.19331
352 1 -1.15437 23.3239 5.26852 50.2564 23.3239 5.26852
353 2 1.02336 22.2608 4.86032 52.4341 22.2608 4.86032
354 2 -1.38992 22.9228 2.81202 50.0208 22.9228 2.81202
355 1 -0.347979 20.7142 3.40142 51.0628 20.7142 3.40142
356 2 1.53372 19.345 2.45985 52.9445 19.345 2.45985
357 2 -1.07887 20.721 1.08263 50.3319 20.721 1.08263
358 1 1.44653 21.1383 0.688511 52.8573 21.1383 0.688511
359 2 3.16806 19.5434 -2.69451 54.5788 19.5434 -2.69451
360 2 0.29241 21.591 -1.52233 51.7032 21.591 -1.52233
361 1 0.810595 19.2234 -2.23941 52.2214 19.2234 -2.23941
362 2 3.38778 17.3969 -4.65471 54.7986 17.3969 -4.65471
363 2 0.0802476 18.7379 -4.54804 51.491 18.7379 -4.54804
364 1 2.35101 19.6376 -5.10404 53.7618 19.6376 -5.10404
365 2 3.94717 19.1851 -7.17045 55.3579 19.1851 -7.17045
366 2 1.21136 19.24 -7.29243 52.6221 19.24 -7.29243
367 1 2.70667 17.0115 -7.20078 54.1174 17.0115 -7.20078
368 2 4.5917 15.4391 -7.82916 56.0025 15.4391 -7.82916
369 2 1.15868 16.0321 -8.91673 52.5695 16.0321 -8.91673
370 1 18.826 28.9697 -8.06454 70.2368 28.9697 11.9355
371 2 19.3409 31.4445 -7.9255 70.7517 31.4445 12.0745
372 2 21.0083 28.4048 -8.80266 72.419 28.4048 11.1973
373 1 21.5507 28.337 -6.44325 72.9614 28.337 13.5568
374 2 22.1669 30.6767 -6.44841 73.5777 30.6767 13.5516
375 2 23.8182 27.6372 -7.28141 75.229 27.6372 12.7186
376 1 24.4418 29.9952 -7.3833 75.8526 29.9952 12.6167
377 2 26.5945 30.9444 -6.64346 78.0053 30.9444 13.3565
378 2 26.1149 28.4535 -8.67851 77.5257 28.4535 11.3215
379 1 27.2922 30.5389 -9.13823 27.2922 30.5389 10.8618
380 2 29.1895 31.8349 -8.12713 29.1895 31.8349 11.8729
381 2 29.2685 29.2053 -10.0597 29.2685 29.2053 9.94031
382 1 30.1475 31.5055 9.6355 30.1475 31.5055 9.6355
383 2 32.0212 32.8417 -9.43153 32.0212 32.8417 10.5685
384 2 32.0192 30.2177 8.63657 32.0192 30.2177 8.63657
385 1 33.0661 30.4796 -9.08362 33.0661 30.4796 10.9164
386 2 35.2382 31.4643 -8.28492 35.2382 31.4643 11.7151
387 2 34.7993 29.0118 9.63303 34.7993 29.0118 9.63303
388 1 35.9723 31.1407 9.3212 35.9723 31.1407 9.3212
389 2 -13.3247 32.1674 -9.76027 38.0861 32.1674 10.2397
390 2 37.6055 29.7575 8.09394 37.6055 29.7575 8.09394
391 1 -12.6095 29.7939 -9.72053 38.8013 29.7939 10.2795
392 2 -10.2915 30.3577 -8.82074 41.1193 30.3577 11.1793
393 2 -11.3736 28.3807 8.66957 40.0372 28.3807 8.66957
394 1 -9.82214 30.3585 8.67963 41.5886 30.3585 8.67963
395 2 -7.53556 30.658 9.57201 43.8752 30.658 9.57201
396 2 -8.59828 29.093 6.92812 42.8125 29.093 6.92812
397 1 -7.25312 28.2821 9.006 44.1576 28.2821 9.006
398 2 -4.7574 27.9841 9.46775 46.6534 27.9841 9.46775
399 2 -6.60493 27.0732 6.97151 44.8058 27.0732 6.97151
400 1 -4.73306 28.6039 7.16479 46.6777 28.6039 7.16479
401 2 -2.31898 28.2829 7.85733 49.0918 28.2829 7.85733
402 2 -3.81556 27.5078 5.07784 47.5952 27.5078 5.07784
403 1 -2.51483 26.0888 6.67888 48.8959 26.0888 6.67888
404 2 -0.11336 25.091 6.71447 51.2974 25.091 6.71447
405 2 -2.12924 25.3169 4.18221 49.2815 25.3169 4.18221
406 1 0.11867 26.4225 4.56948 51.5294 26.4225 4.56948
407 2 2.31921 25.3843 4.54356 53.73 25.3843 4.54356
408 2 0.251106 25.9847 2.06681 51.6619 25.9847 2.06681
409 1 0.977931 23.8031 2.84068 52.3887 23.8031 2.84068
410 2 3.04551 22.5729 2.25486 54.4563 22.5729 2.25486
411 2 0.495993 23.5197 0.369034 51.9068 23.5197 0.369034
412 1 3.02915 24.0879 0.183582 54.4399 24.0879 0.183582
413 2 3.74123 21.583 -0.33002 55.152 21.583 -0.33002
414 2 1.99479 24.4115 -2.19102 53.4056 24.4115 -2.19102
415 1 2.61199 22.0057 -2.5397 54.0228 22.0057 -2.5397
416 2 4.9459 22.4436 -3.21687 56.3567 22.4436 -3.21687
417 2 0.837965 21.2163 -4.15608 52.2487 21.2163 -4.15608
418 1 13.227 30.114 8.87815 64.6378 30.114 8.87815
419 2 13.5104 32.519 8.776 64.9211 32.519 8.776
420 2 15.4549 29.6633 7.96822 66.8657 29.6633 7.96822
421 1 16.0141 29.4634 -9.67662 67.4248 29.4634 10.3234
422 2 16.4472 31.9143 -9.49875 67.8579 31.9143 10.5013
423 2 18.2993 28.9843 9.58808 69.7101 28.9843 9.58808
424 1 18.8319 31.5181 9.63085 70.2426 31.5181 9.63085
425 2 20.7368 33.131 -9.55091 72.1475 33.131 10.4491
426 2 20.796 30.2313 8.76079 72.2067 30.2313 8.76079
427 1 21.5844 30.84 -8.86709 72.9952 30.84 11.1329
428 2 23.5492 32.3222 -8.13018 74.9599 32.3222 11.8698
429 2 23.6633 29.4446 -9.70223 75.0741 29.4446 10.2978
430 1 24.5738 31.6779 9.62294 75.9846 31.6779 9.62294
431 2 26.5772 32.9156 -9.48724 77.988 32.9156 10.5128
432 2 26.3389 30.151 8.57327 77.7496 30.151 8.57327
433 1 27.4162 32.3694 8.1325 27.4162 32.3694 8.1325
434 2 29.2575 33.7975 9.05782 29.2575 33.7975 9.05782
435 2 29.3525 31.039 7.32239 29.3525 31.039 7.32239
436 1 30.1986 33.3442 6.87461 30.1986 33.3442 6.87461
437 2 32.1639 34.7326 7.74078 32.1639 34.7326 7.74078
438 2 32.0366 31.9713 5.98466 32.0366 31.9713 5.98466
439 1 33.0515 32.4969 8.31283 33.0515 32.4969 8.31283
440 2 35.0983 33.5755 9.15715 35.0983 33.5755 9.15715
441 2 34.6422 30.9229 7.1676 34.6422 30.9229 7.1676
442 1 35.9325 33.0646 6.739 35.9325 33.0646 6.739
443 2 -13.4937 34.2183 7.68861 37.917 34.2183 7.68861
444 2 -13.7138 31.7525 5.57766 37.697 31.7525 5.57766
445 1 -12.599 31.9421 7.88638 38.8118 31.9421 7.88638
446 2 -10.4764 32.9064 8.83585 40.9343 32.9064 8.83585
447 2 -10.9386 30.7338 6.47656 40.4722 30.7338 6.47656
448 1 -9.6834 32.8041 6.60182 41.7274 32.8041 6.60182
449 2 -7.29698 33.4069 7.41254 44.1138 33.4069 7.41254
450 2 -8.33195 31.3517 5.05124 43.0788 31.3517 5.05124
451 1 -6.97956 30.9077 7.17278 44.4312 30.9077 7.17278
452 2 -4.61737 30.8835 8.00971 46.7934 30.8835 8.00971
453 2 -5.97023 29.6732 5.22955 45.4405 29.6732 5.22955
454 1 -4.1502 31.3558 5.64834 47.2606 31.3558 5.64834
455 2 -1.68429 31.467 6.17751 49.7265 31.467 6.17751
456 2 -3.12497 30.1487 3.65069 48.2858 30.1487 3.65069
457 1 -1.86526 29.0612 5.50685 49.5455 29.0612 5.50685
458 2 0.680235 28.4995 5.83261 52.091 28.4995 5.83261
459 2 -1.22633 28.0962 3.197 50.1844 28.0962 3.197
460 1 0.888424 29.4926 3.48566 52.2992 29.4926 3.48566
461 2 3.27976 28.7553 3.92828 54.6905 28.7553 3.92828
462 2 1.4835 28.6925 1.12702 52.8943 28.6925 1.12702
463 1 2.62945 26.7659 2.46705 54.0402 26.7659 2.46705
464 2 4.61054 25.0608 1.96227 56.0213 25.0608 1.96227
465 2 2.3919 26.4673 -0.127203 53.8027 26.4673 -0.127203
466 1 4.78131 26.8233 -0.0407719 56.1921 26.8233 -0.0407719
467 2 5.32219 24.4223 -0.752811 56.733 24.4223 -0.752811
468 2 3.8897 27.3766 -2.34709 55.3005 27.3766 -2.34709
469 1 4.36371 24.976 -2.8976 55.7745 24.976 -2.8976
470 2 10.7113 32.1604 6.81994 62.1221 32.1604 6.81994
471 2 12.5982 30.0172 6.52233 64.009 30.0172 6.52233
472 1 13.096 32.474 6.30126 64.5068 32.474 6.30126
473 2 14.8309 34.2387 7.1169 66.2417 34.2387 7.1169
474 2 15.295 31.4162 5.71275 66.7057 31.4162 5.71275
475 1 15.9049 32.1304 8.07191 67.3157 32.1304 8.07191
476 2 17.7116 33.7778 8.7831 69.1224 33.7778 8.7831
477 2 18.0332 30.7429 7.31833 69.4439 30.7429 7.31833
478 1 18.7911 32.9764 6.66421 70.2019 32.9764 6.66421
479 2 20.5268 34.5831 7.64423 71.9375 34.5831 7.64423
480 2 20.8502 31.8753 5.89343 72.261 31.8753 5.89343
481 1 21.6779 32.493 8.27136 73.0886 32.493 8.27136
482 2 23.6096 33.8543 8.97749 75.0204 33.8543 8.97749
483 2 23.609 30.9925 7.51255 75.0198 30.9925 7.51255
484 1 24.466 33.1686 6.76065 75.8768 33.1686 6.76065
485 2 26.3116 34.5814 7.71369 77.7223 34.5814 7.71369
486 2 26.4541 31.9764 5.81082 77.8649 31.9764 5.81082
487 1 27.4273 34.3213 5.48697 27.4273 34.3213 5.48697
488 2 29.411 35.5389 6.25843 29.411 35.5389 6.25843
489 2 29.1424 32.7074 4.66291 29.1424 32.7074 4.66291
490 1 30.2515 34.8932 3.94853 30.2515 34.8932 3.94853
491 2 32.1126 36.3268 4.86934 32.1126 36.3268 4.86934
492 2 32.2537 33.5879 3.09947 32.2537 33.5879 3.09947
493 1 33.047 34.0879 5.39713 33.047 34.0879 5.39713
494 2 34.9454 35.3849 6.4077 34.9454 35.3849 6.4077
495 2 34.8952 32.8176 4.47956 34.8952 32.8176 4.47956
496 1 -15.4766 35.1282 4.07393 35.9342 35.1282 4.07393
497 2 -13.3937 36.307 4.85536 38.0171 36.307 4.85536
498 2 -13.738 33.5318 3.17734 37.6728 33.5318 3.17734
499 1 -12.5626 34.0055 5.37766 38.8481 34.0055 5.37766
500 2 -10.4183 35.1555 6.37498 40.9925 35.1555 6.37498
501 2 -10.7491 32.711 4.35974 40.6617 32.711 4.35974
502 1 -9.57009 34.8666 4.08968 41.8407 34.8666 4.08968
503 2 -7.34032 35.8153 4.95772 44.0704 35.8153 4.95772
504 2 -7.97764 33.3441 2.85127 43.4331 33.3441 2.85127
505 1 -6.76383 33.333 4.88264 44.6469 33.333 4.88264
506 2 -4.56438 33.8157 5.85709 46.8464 33.8157 5.85709
507 2 -5.40424 31.9141 3.46961 46.0065 31.9141 3.46961
508 1 -3.93839 33.8432 3.48079 47.4724 33.8432 3.48079
509 2 -1.62354 34.1802 4.3509 49.7872 34.1802 4.3509
510 2 -2.68685 32.416 1.74714 48.7239 32.416 1.74714
511 1 -1.35804 31.7794 3.83087 50.0527 31.7794 3.83087
512 2 0.943938 31.7367 4.56899 52.3547 31.7367 4.56899
513 2 -0.267831 30.8617 1.70781 51.1429 30.8617 1.70781
514 1 1.61499 32.3986 2.19747 53.0258 32.3986 2.19747
515 2 3.89407 31.8666 3.09059 55.3048 31.8666 3.09059
516 2 2.9529 31.787 0.0458862 54.3637 31.787 0.0458862
517 1 3.77675 29.8336 1.53288 55.1875 29.8336 1.53288
518 2 5.01539 27.6759 2.23124 56.4262 27.6759 2.23124
519 2 5.09586 29.3848 -0.579575 56.5066 29.3848 -0.579575
520 1 7.59767 32.848 2.75883 59.0084 32.848 2.75883
521 2 8.86981 34.5499 4.05671 60.2806 34.5499 4.05671
522 2 9.92695 32.2297 2.00533 61.3377 32.2297 2.00533
523 1 10.4587 32.5704 4.38067 61.8695 32.5704 4.38067
524 2 11.901 34.4268 5.53389 63.3118 34.4268 5.53389
525 2 12.752 31.6432 3.86052 64.1627 31.6432 3.86052
526 1 13.161 34.1227 3.39417 64.5718 34.1227 3.39417
527 2 14.7319 35.7277 4.46386 66.1427 35.7277 4.46386
528 2 15.4145 33.1504 2.62235 66.8253 33.1504 2.62235
529 1 16.0417 33.6793 5.01697 67.4524 33.6793 5.01697
530 2 17.7774 35.1856 6.07022 69.1882 35.1856 6.07022
531 2 18.1238 32.471 4.38174 69.5346 32.471 4.38174
532 1 18.8388 34.8095 3.92526 70.2495 34.8095 3.92526
533 2 20.725 36.3073 4.6666 72.1358 36.3073 4.6666
534 2 20.7076 33.4437 3.18731 72.1183 33.4437 3.18731
535 1 21.6453 34.1793 5.42477 73.056 34.1793 5.42477
536 2 23.6819 35.4733 6.16 75.0926 35.4733 6.16
537 2 23.4959 32.7759 4.46597 74.9067 32.7759 4.46597
538 1 24.6261 35.0186 3.96349 76.0369 35.0186 3.96349
539 2 26.437 36.579 4.6484 77.8477 36.579 4.6484
540 2 26.5779 33.5894 3.36505 77.9886 33.5894 3.36505
541 1 27.4679 35.7359 2.38326 27.4679 35.7359 2.38326
542 2 29.4232 37.1733 3.15437 29.4232 37.1733 3.15437
543 2 29.3636 34.1506 1.68253 29.3636 34.1506 1.68253