ITEM: TIMESTEP
3273000
ITEM: NUMBER OF ATOMS
810
ITEM: BOX BOUNDS pp pp pp
8.0341777045796159e-01 5.2214187229542503e+01
-7.2792386899841226e+00 5.8295453689982992e+01
-1.0000000000000000e+01 1.0000000000000000e+01
ITEM: ATOMS id type x y z xu yu zu
1 1 1.02448 57.7641 0.0652771 1.02448 -7.81055 0.0652771
2 2 2.54192 56.8475 1.85787 2.54192 -8.72719 1.85787
3 2 3.25456 58.3185 -0.97353 3.25456 -7.25617 -0.97353
4 1 3.80303 -6.62414 1.34718 3.80303 -6.62414 1.34718
5 2 5.58187 58.1964 2.91908 5.58187 -7.37829 2.91908
6 2 5.91165 -6.12588 -0.128104 5.91165 -6.12588 -0.128104
7 1 6.68344 57.3128 0.828666 6.68344 -8.26193 0.828666
8 2 8.53385 56.7093 2.39571 8.53385 -8.8654 2.39571
9 2 8.70029 58.0181 -0.648273 8.70029 -7.5566 -0.648273
10 1 9.50418 -6.77216 1.51898 9.50418 -6.77216 1.51898
11 2 11.0986 58.1359 3.37676 11.0986 -7.43883 3.37676
12 2 11.738 -6.16992 0.446011 11.738 -6.16992 0.446011
13 1 12.3665 57.126 1.38212 12.3665 -8.44874 1.38212
14 2 14.0993 56.573 2.99816 14.0993 -9.00171 2.99816
15 2 14.3405 57.8329 -0.00675249 14.3405 -7.74182 -0.00675249
16 1 15.2024 -6.93299 2.13968 15.2024 -6.93299 2.13968
17 2 17.2167 58.2335 3.50642 17.2167 -7.34118 3.50642
18 2 16.919 -6.36181 0.41968 16.919 -6.36181 0.41968
19 1 18.1353 57.1823 1.29834 18.1353 -8.39238 1.29834
20 2 20.2038 56.8076 2.62333 20.2038 -8.76714 2.62333
21 2 19.8042 57.7399 -0.440695 19.8042 -7.83484 -0.440695
22 1 21.0081 -6.71278 1.47541 21.0081 -6.71278 1.47541
23 2 22.9917 -7.17665 2.75798 22.9917 -7.17665 2.75798
24 2 22.572 -6.07335 -0.225971 22.572 -6.07335 -0.225971
25 1 23.7893 57.4555 0.565445 23.7893 -8.11923 0.565445
26 2 25.7561 57.0508 2.07885 25.7561 -8.52386 2.07885
27 2 25.6349 57.9144 -0.978752 25.6349 -7.66031 -0.978752
28 1 26.6703 -6.50967 0.999307 26.6703 -6.50967 0.999307
29 2 28.6722 -6.95336 2.37479 28.6722 -6.95336 2.37479
30 2 28.3796 -5.94325 -0.705684 28.3796 -5.94325 -0.705684
31 1 29.5299 57.6067 0.233111 29.5299 -7.96798 0.233111
32 2 31.547 57.0988 1.66153 31.547 -8.47589 1.66153
33 2 31.3687 58.2321 -1.43582 31.3687 -7.34255 -1.43582
34 1 32.3906 -6.33399 0.539143 32.3906 -6.33399 0.539143
35 2 34.4103 -6.9693 2.02799 34.4103 -6.9693 2.02799
36 2 34.2031 -5.60086 -1.08957 34.2031 -5.60086 -1.08957
37 1 35.2671 57.864 -0.185499 35.2671 -7.71069 -0.185499
38 2 37.2387 57.2593 1.20475 37.2387 -8.31541 1.20475
39 2 37.0079 -7.12741 -1.80785 37.0079 -7.12741 -1.80785
40 1 38.0794 -6.14587 0.351399 38.0794 -6.14587 0.351399
41 2 40.0845 -6.82159 1.74354 40.0845 -6.82159 1.74354
42 2 39.9922 -5.40498 -1.15014 39.9922 -5.40498 -1.15014
43 1 41.1099 58.1176 -0.463536 41.1099 -7.4571 -0.463536
44 2 42.9081 57.3415 1.09132 42.9081 -8.23322 1.09132
45 2 42.9765 -6.93181 -1.90656 42.9765 -6.93181 -1.90656
46 1 43.9076 -6.03827 0.212713 43.9076 -6.03827 0.212713
47 2 45.686 -6.81245 1.81975 45.686 -6.81245 1.81975
48 2 45.9787 -5.50143 -1.18977 45.9787 -5.50143 -1.18977
49 1 46.7795 57.922 -0.278711 46.7795 -7.65266 -0.278711
50 2 48.4677 57.2495 1.45575 48.4677 -8.32522 1.45575
51 2 48.7718 -7.08833 -1.55687 48.7718 -7.08833 -1.55687
52 1 49.4514 -6.24171 0.63974 49.4514 -6.24171 0.63974
53 2 51.2302 -7.11649 2.13812 51.2302 -7.11649 2.13812
54 2 51.491 -5.43112 -0.568644 51.491 -5.43112 -0.568644
55 1 0.951192 -4.99462 1.65804 0.951192 -4.99462 1.65804
56 2 2.47746 -5.81893 3.39426 2.47746 -5.81893 3.39426
57 2 3.12698 -4.38683 0.434294 3.12698 -4.38683 0.434294
58 1 3.81004 -3.72923 2.77386 3.81004 -3.72923 2.77386
59 2 5.52931 -4.47252 4.37998 5.52931 -4.47252 4.37998
60 2 5.83907 -3.10054 1.35097 5.83907 -3.10054 1.35097
61 1 6.64892 -5.2408 2.13877 6.64892 -5.2408 2.13877
62 2 8.30355 -6.17046 3.71023 8.30355 -6.17046 3.71023
63 2 8.7704 -4.53514 0.971994 8.7704 -4.53514 0.971994
64 1 9.47325 -3.95283 3.23152 9.47325 -3.95283 3.23152
65 2 11.3018 -4.56856 4.87964 11.3018 -4.56856 4.87964
66 2 11.5271 -3.23487 1.93268 11.5271 -3.23487 1.93268
67 1 12.3481 -5.4427 2.75673 12.3481 -5.4427 2.75673
68 2 14.2468 -6.2047 4.22943 14.2468 -6.2047 4.22943
69 2 14.2972 -4.76771 1.34431 14.2972 -4.76771 1.34431
70 1 15.2636 -4.01812 3.56167 15.2636 -4.01812 3.56167
71 2 17.4878 -4.27975 4.7229 17.4878 -4.27975 4.7229
72 2 16.7883 -3.32492 1.71396 16.7883 -3.32492 1.71396
73 1 18.0409 -5.25203 2.4792 18.0409 -5.25203 2.4792
74 2 20.2593 -5.6272 3.68497 20.2593 -5.6272 3.68497
75 2 19.6986 -4.70699 0.687785 19.6986 -4.70699 0.687785
76 1 20.8928 -3.51031 2.57704 20.8928 -3.51031 2.57704
77 2 22.8932 -4.04991 3.92838 22.8932 -4.04991 3.92838
78 2 22.7004 -2.80309 0.933582 22.7004 -2.80309 0.933582
79 1 23.6962 -4.97673 1.77813 23.6962 -4.97673 1.77813
80 2 25.7141 -5.41267 3.12671 25.7141 -5.41267 3.12671
81 2 25.5237 -4.46396 0.0961822 25.5237 -4.46396 0.0961822
82 1 26.6178 -3.37022 2.0541 26.6178 -3.37022 2.0541
83 2 28.4244 -3.96108 3.44207 28.4244 -3.96108 3.44207
84 2 28.5318 -2.63184 0.634621 28.5318 -2.63184 0.634621
85 1 29.4647 -4.85661 1.30906 29.4647 -4.85661 1.30906
86 2 31.4626 -5.40971 2.76127 31.4626 -5.40971 2.76127
87 2 31.316 -4.18817 -0.272757 31.316 -4.18817 -0.272757
88 1 32.3069 -3.37005 1.8113 32.3069 -3.37005 1.8113
89 2 34.3307 -3.96072 3.26031 34.3307 -3.96072 3.26031
90 2 34.1208 -2.51738 0.373594 34.1208 -2.51738 0.373594
91 1 35.2784 -4.70287 1.06282 35.2784 -4.70287 1.06282
92 2 37.1818 -5.30644 2.54391 37.1818 -5.30644 2.54391
93 2 37.1614 -4.01142 -0.380229 37.1614 -4.01142 -0.380229
94 1 38.0851 -3.11752 1.76089 38.0851 -3.11752 1.76089
95 2 40.0761 -3.64406 3.19029 40.0761 -3.64406 3.19029
96 2 39.8189 -2.41158 0.172569 39.8189 -2.41158 0.172569
97 1 41.026 -4.57707 1.07633 41.026 -4.57707 1.07633
98 2 43.1198 -5.08921 2.3833 43.1198 -5.08921 2.3833
99 2 42.8468 -3.92047 -0.591263 42.8468 -3.92047 -0.591263
100 1 43.9256 -2.9562 1.42846 43.9256 -2.9562 1.42846
101 2 45.6469 -3.7255 3.10896 45.6469 -3.7255 3.10896
102 2 45.9921 -2.33062 0.108044 45.9921 -2.33062 0.108044
103 1 46.7179 -4.62195 0.980827 46.7179 -4.62195 0.980827
104 2 48.4547 -5.34536 2.70042 48.4547 -5.34536 2.70042
105 2 48.7688 -3.88651 -0.0946047 48.7688 -3.88651 -0.0946047
106 1 49.6108 -3.29947 2.2089 49.6108 -3.29947 2.2089
107 2 51.1839 -4.30931 3.80031 51.1839 -4.30931 3.80031
108 2 51.7189 -2.74305 0.960869 51.7189 -2.74305 0.960869
109 1 1.00635 -2.12174 3.3186 1.00635 -2.12174 3.3186
110 2 2.66474 -2.95482 4.95348 2.66474 -2.95482 4.95348
111 2 3.07788 -1.52658 2.0331 3.07788 -1.52658 2.0331
112 1 3.7943 -0.840829 4.4001 3.7943 -0.840829 4.4001
113 2 5.61759 -1.58646 5.94552 5.61759 -1.58646 5.94552
114 2 5.7335 -0.114006 3.00293 5.7335 -0.114006 3.00293
115 1 6.65698 -2.35252 3.75152 6.65698 -2.35252 3.75152
116 2 8.55577 -2.97119 5.35755 8.55577 -2.97119 5.35755
117 2 8.6512 -1.67257 2.42871 8.6512 -1.67257 2.42871
118 1 9.58215 -0.874374 4.59757 9.58215 -0.874374 4.59757
119 2 11.2935 -1.6836 6.2488 11.2935 -1.6836 6.2488
120 2 11.5974 -0.115386 3.38242 11.5974 -0.115386 3.38242
121 1 12.4266 -2.48607 4.09299 12.4266 -2.48607 4.09299
122 2 14.2712 -3.04589 5.72415 14.2712 -3.04589 5.72415
123 2 14.3194 -1.77847 2.67378 14.3194 -1.77847 2.67378
124 1 15.3197 -0.957103 4.87012 15.3197 -0.957103 4.87012
125 2 17.4568 -1.45381 5.99174 17.4568 -1.45381 5.99174
126 2 16.9019 -0.101378 3.09083 16.9019 -0.101378 3.09083
127 1 18.0327 -2.17709 3.56149 18.0327 -2.17709 3.56149
128 2 20.1205 -2.72353 4.84321 20.1205 -2.72353 4.84321
129 2 19.7111 -1.37562 1.84418 19.7111 -1.37562 1.84418
130 1 20.8803 -0.485811 3.95339 20.8803 -0.485811 3.95339
131 2 23.0227 -1.15349 5.14419 23.0227 -1.15349 5.14419
132 2 22.659 0.211884 2.29268 22.659 0.211884 2.29268
133 1 23.7374 -1.90076 2.92349 23.7374 -1.90076 2.92349
134 2 25.7745 -2.54685 4.24123 25.7745 -2.54685 4.24123
135 2 25.5688 -1.05789 1.39888 25.5688 -1.05789 1.39888
136 1 26.5846 -0.360851 3.48085 26.5846 -0.360851 3.48085
137 2 28.4738 -1.07237 4.95981 28.4738 -1.07237 4.95981
138 2 28.4802 0.44653 2.09701 28.4802 0.44653 2.09701
139 1 29.4433 -1.79239 2.72903 29.4433 -1.79239 2.72903
140 2 31.311 -2.49195 4.10853 31.311 -2.49195 4.10853
141 2 31.2858 -1.00667 1.22182 31.2858 -1.00667 1.22182
142 1 32.2831 -0.32394 3.33249 32.2831 -0.32394 3.33249
143 2 34.3394 -1.11673 4.7359 34.3394 -1.11673 4.7359
144 2 34.0808 0.40442 1.80425 34.0808 0.40442 1.80425
145 1 35.118 -1.76294 2.56613 35.118 -1.76294 2.56613
146 2 37.2788 -2.12535 3.94188 37.2788 -2.12535 3.94188
147 2 36.8182 -0.96561 0.945899 36.8182 -0.96561 0.945899
148 1 38.0697 -0.0159447 2.96202 38.0697 -0.0159447 2.96202
149 2 39.8646 -0.83421 4.35025 39.8646 -0.83421 4.35025
150 2 39.9194 0.718764 1.50238 39.9194 0.718764 1.50238
151 1 40.9117 -1.50698 2.20503 40.9117 -1.50698 2.20503
152 2 42.9304 -2.14112 3.68299 42.9304 -2.14112 3.68299
153 2 42.7782 -0.800162 0.736154 42.7782 -0.800162 0.736154
154 1 43.806 -0.0257465 2.87524 43.806 -0.0257465 2.87524
155 2 45.5549 -0.790263 4.55506 45.5549 -0.790263 4.55506
156 2 45.8427 0.598398 1.53152 45.8427 0.598398 1.53152
157 1 46.7397 -1.58819 2.39195 46.7397 -1.58819 2.39195
158 2 48.4425 -2.41369 4.23676 48.4425 -2.41369 4.23676
159 2 48.8502 -1.04168 1.29568 48.8502 -1.04168 1.29568
160 1 49.6083 -0.420621 3.58507 49.6083 -0.420621 3.58507
161 2 51.1128 -1.36617 5.35081 51.1128 -1.36617 5.35081
162 2 51.6222 0.127592 2.37477 51.6222 0.127592 2.37477
163 1 0.886443 0.83497 4.6903 0.886443 0.83497 4.6903
164 2 2.68428 0.130464 6.34848 2.68428 0.130464 6.34848
165 2 3.01601 1.32578 3.30524 3.01601 1.32578 3.30524
166 1 3.78894 2.22274 5.56001 3.78894 2.22274 5.56001
167 2 5.56273 1.66134 7.26669 5.56273 1.66134 7.26669
168 2 5.89592 2.70543 4.24393 5.89592 2.70543 4.24393
169 1 6.70848 0.536774 5.32345 6.70848 0.536774 5.32345
170 2 8.57966 -0.136325 6.81544 8.57966 -0.136325 6.81544
171 2 8.63937 1.29168 3.88454 8.63937 1.29168 3.88454
172 1 9.58316 2.08189 6.11746 9.58316 2.08189 6.11746
173 2 11.3696 1.38604 7.72008 11.3696 1.38604 7.72008
174 2 11.6597 2.77983 4.83025 11.6597 2.77983 4.83025
175 1 12.5162 0.458709 5.66711 12.5162 0.458709 5.66711
176 2 14.4555 -0.118616 7.0786 14.4555 -0.118616 7.0786
177 2 14.2191 1.17083 4.0119 14.2191 1.17083 4.0119
178 1 15.2575 2.06077 6.17426 15.2575 2.06077 6.17426
179 2 17.4087 1.4285 7.37029 17.4087 1.4285 7.37029
180 2 17.0227 2.97565 4.58835 17.0227 2.97565 4.58835
181 1 18.1766 0.819753 5.07277 18.1766 0.819753 5.07277
182 2 20.2663 0.29623 6.24175 20.2663 0.29623 6.24175
183 2 19.6075 1.62888 3.29028 19.6075 1.62888 3.29028
184 1 21.0237 2.50644 5.25437 21.0237 2.50644 5.25437
185 2 23.0806 1.85693 6.50418 23.0806 1.85693 6.50418
186 2 22.6665 3.36094 3.60006 22.6665 3.36094 3.60006
187 1 23.8315 1.15903 4.29829 23.8315 1.15903 4.29829
188 2 25.7785 0.349158 5.8119 25.7785 0.349158 5.8119
189 2 25.7436 1.94484 2.75626 25.7436 1.94484 2.75626
190 1 26.6894 2.6065 4.96706 26.6894 2.6065 4.96706
191 2 28.539 1.9413 6.51713 28.539 1.9413 6.51713
192 2 28.6411 3.25279 3.53923 28.6411 3.25279 3.53923
193 1 29.457 1.10355 4.31415 29.457 1.10355 4.31415
194 2 31.3948 0.254034 5.54955 31.3948 0.254034 5.54955
195 2 31.2564 1.84217 2.7178 31.2564 1.84217 2.7178
196 1 32.2942 2.56795 4.8365 32.2942 2.56795 4.8365
197 2 34.3049 1.83641 6.19668 34.3049 1.83641 6.19668
198 2 34.055 3.39756 3.31429 34.055 3.39756 3.31429
199 1 35.1095 1.17097 3.97788 35.1095 1.17097 3.97788
200 2 37.2767 0.53128 5.39259 37.2767 0.53128 5.39259
201 2 36.9122 2.27563 2.54445 36.9122 2.27563 2.54445
202 1 37.9793 2.87234 4.76346 37.9793 2.87234 4.76346
203 2 40.0155 2.09531 6.06512 40.0155 2.09531 6.06512
204 2 39.8451 3.59001 3.13496 39.8451 3.59001 3.13496
205 1 40.9435 1.43923 3.77633 40.9435 1.43923 3.77633
206 2 42.9852 0.79324 5.149 42.9852 0.79324 5.149
207 2 42.7859 2.13675 2.18431 42.7859 2.13675 2.18431
208 1 43.8841 2.8926 4.23931 43.8841 2.8926 4.23931
209 2 45.6284 2.18521 5.88476 45.6284 2.18521 5.88476
210 2 46.0141 3.48814 2.93314 46.0141 3.48814 2.93314
211 1 46.7036 1.27204 3.8408 46.7036 1.27204 3.8408
212 2 48.3617 0.488735 5.64791 48.3617 0.488735 5.64791
213 2 48.9545 1.87849 2.66392 48.9545 1.87849 2.66392
214 1 49.5154 2.64281 4.936 49.5154 2.64281 4.936
215 2 51.0619 1.96515 6.69473 51.0619 1.96515 6.69473
216 2 51.6925 2.94526 3.63696 51.6925 2.94526 3.63696
217 1 0.905099 3.9744 5.82582 0.905099 3.9744 5.82582
218 2 2.55341 3.35338 7.59288 2.55341 3.35338 7.59288
219 2 3.09871 4.33052 4.47734 3.09871 4.33052 4.47734
220 1 3.69891 5.30789 6.70552 3.69891 5.30789 6.70552
221 2 5.45549 4.52099 8.37332 5.45549 4.52099 8.37332
222 2 5.82793 5.89357 5.43556 5.82793 5.89357 5.43556
223 1 6.66297 3.66659 6.42763 6.66297 3.66659 6.42763
224 2 8.41654 3.07075 8.09155 8.41654 3.07075 8.09155
225 2 8.70128 4.04219 4.95632 8.70128 4.04219 4.95632
226 1 9.5084 5.17099 7.09561 9.5084 5.17099 7.09561
227 2 11.1581 4.64003 8.91745 11.1581 4.64003 8.91745
228 2 11.604 5.63597 5.8363 11.604 5.63597 5.8363
229 1 12.3666 3.51077 7.03558 12.3666 3.51077 7.03558
230 2 14.3801 2.91153 8.33049 14.3801 2.91153 8.33049
231 2 14.1859 4.13948 5.36954 14.1859 4.13948 5.36954
232 1 15.278 5.09402 7.42754 15.278 5.09402 7.42754
233 2 17.2851 4.58945 8.79596 17.2851 4.58945 8.79596
234 2 17.0954 5.70985 5.75787 17.0954 5.70985 5.75787
235 1 18.1557 3.65532 6.67491 18.1557 3.65532 6.67491
236 2 20.5084 3.15068 7.59564 20.5084 3.15068 7.59564
237 2 19.6272 4.52421 4.7848 19.6272 4.52421 4.7848
238 1 20.9945 5.48816 6.7851 20.9945 5.48816 6.7851
239 2 23.1102 4.97588 8.01788 23.1102 4.97588 8.01788
240 2 22.6379 6.25488 5.05019 22.6379 6.25488 5.05019
241 1 23.8569 4.10655 5.81636 23.8569 4.10655 5.81636
242 2 25.897 3.32989 7.20264 25.897 3.32989 7.20264
243 2 25.6171 4.86587 4.27691 25.6171 4.86587 4.27691
244 1 26.6407 5.54913 6.38224 26.6407 5.54913 6.38224
245 2 28.4624 4.89519 7.90984 28.4624 4.89519 7.90984
246 2 28.6425 6.1861 5.00529 28.6425 6.1861 5.00529
247 1 29.5278 4.02845 5.77389 29.5278 4.02845 5.77389
248 2 31.5092 3.39603 7.12966 31.5092 3.39603 7.12966
249 2 31.2999 4.79451 4.15969 31.2999 4.79451 4.15969
250 1 32.2537 5.57442 6.32813 32.2537 5.57442 6.32813
251 2 34.2578 4.91928 7.76561 34.2578 4.91928 7.76561
252 2 34.0125 6.36278 4.77894 34.0125 6.36278 4.77894
253 1 35.059 4.16358 5.49186 35.059 4.16358 5.49186
254 2 37.0827 3.62841 6.92707 37.0827 3.62841 6.92707
255 2 36.872 5.03405 3.97511 36.872 5.03405 3.97511
256 1 37.9755 5.82787 6.03161 37.9755 5.82787 6.03161
257 2 41.821 6.15102 6.80906 41.821 6.15102 6.80906
258 2 39.9126 6.56958 4.51003 39.9126 6.56958 4.51003
259 1 41.0439 4.37219 5.20465 41.0439 4.37219 5.20465
260 2 43.1726 3.67556 6.45494 43.1726 3.67556 6.45494
261 2 42.6496 4.90607 3.33605 42.6496 4.90607 3.33605
262 1 43.8867 5.9165 5.479 43.8867 5.9165 5.479
263 2 45.5445 5.24887 7.16932 45.5445 5.24887 7.16932
264 2 46.0395 6.58114 4.22063 46.0395 6.58114 4.22063
265 1 46.6852 4.39324 5.11774 46.6852 4.39324 5.11774
266 2 48.2231 3.56785 6.85287 48.2231 3.56785 6.85287
267 2 48.8552 4.80154 3.95997 48.8552 4.80154 3.95997
268 1 49.4113 5.58348 6.23313 49.4113 5.58348 6.23313
269 2 51.1748 4.98196 7.8545 51.1748 4.98196 7.8545
270 2 51.4976 6.18714 4.82536 51.4976 6.18714 4.82536
271 1 0.915801 7.06917 7.02604 0.915801 7.06917 7.02604
272 2 2.56309 6.21205 8.70923 2.56309 6.21205 8.70923
273 2 2.99622 7.44744 5.64214 2.99622 7.44744 5.64214
274 1 3.75764 8.26517 7.88249 3.75764 8.26517 7.88249
275 2 5.39907 7.69106 9.71573 5.39907 7.69106 9.71573
276 2 5.95385 8.72774 6.57616 5.95385 8.72774 6.57616
277 1 6.60236 6.64231 7.70499 6.60236 6.64231 7.70499
278 2 8.45609 5.95605 9.22494 8.45609 5.95605 9.22494
279 2 8.60882 7.35871 6.33119 8.60882 7.35871 6.33119
280 1 9.43999 8.11535 8.52231 9.43999 8.11535 8.52231
281 2 11.3008 7.56492 -9.98883 11.3008 7.56492 10.0112
282 2 11.2453 8.75543 6.99527 11.2453 8.75543 6.99527
283 1 12.2535 6.6515 7.87044 12.2535 6.6515 7.87044
284 2 14.197 5.83201 9.55128 14.197 5.83201 9.55128
285 2 14.3154 7.30473 6.58779 14.3154 7.30473 6.58779
286 1 15.1078 8.01542 8.78234 15.1078 8.01542 8.78234
287 2 17.1029 7.37391 10.1959 17.1029 7.37391 10.1959
288 2 17.0611 8.94657 7.37843 17.0611 8.94657 7.37843
289 1 18.06 6.7501 7.77711 18.06 6.7501 7.77711
290 2 20.1899 6.28876 9.01596 20.1899 6.28876 9.01596
291 2 19.762 7.56345 6.07765 19.762 7.56345 6.07765
292 1 20.9177 8.51933 8.06111 20.9177 8.51933 8.06111
293 2 23.0676 8.08057 9.28432 23.0676 8.08057 9.28432
294 2 22.5217 9.29422 6.33353 22.5217 9.29422 6.33353
295 1 23.754 7.20215 7.07066 23.754 7.20215 7.07066
296 2 25.6574 6.45437 8.5884 25.6574 6.45437 8.5884
297 2 25.6239 7.76012 5.56278 25.6239 7.76012 5.56278
298 1 26.6205 8.55464 7.71947 26.6205 8.55464 7.71947
299 2 28.5852 7.99327 9.31317 28.5852 7.99327 9.31317
300 2 28.4991 9.14857 6.28661 28.4991 9.14857 6.28661
301 1 29.3904 7.05194 7.18714 29.3904 7.05194 7.18714
302 2 31.4342 6.67304 8.43018 31.4342 6.67304 8.43018
303 2 31.2567 7.6418 5.39536 31.2567 7.6418 5.39536
304 1 32.209 8.81881 7.39065 32.209 8.81881 7.39065
305 2 34.1863 8.16211 8.92176 34.1863 8.16211 8.92176
306 2 34.4092 9.35008 6.35944 34.4092 9.35008 6.35944
307 1 35.0082 7.07142 6.94268 35.0082 7.07142 6.94268
308 2 37.2468 7.52588 7.90655 37.2468 7.52588 7.90655
309 2 36.608 7.68536 5.16085 36.608 7.68536 5.16085
310 1 38.5612 28.1077 10.2646 38.5612 28.1077 -9.7354
311 2 39.4198 25.7757 10.5792 39.4198 25.7757 -9.42078
312 2 40.7009 28.8848 9.41334 40.7009 28.8848 -10.5867
313 1 41.5395 26.6166 9.71285 41.5395 26.6166 -10.2871
314 2 41.5305 26.5693 -7.7901 41.5305 26.5693 -7.7901
315 2 43.3187 25.0761 10.4761 43.3187 25.0761 -9.52394
316 1 43.9657 27.0306 -8.03602 43.9657 27.0306 -8.03602
317 2 46.2029 26.6913 -6.82763 46.2029 26.6913 -6.82763
318 2 45.5078 27.0069 10.044 45.5078 27.0069 -9.95598
319 1 46.574 7.43847 6.40697 46.574 7.43847 6.40697
320 2 48.3491 6.70182 8.15488 48.3491 6.70182 8.15488
321 2 48.7346 7.75168 5.19237 48.7346 7.75168 5.19237
322 1 49.5719 8.78779 7.27538 49.5719 8.78779 7.27538
323 2 51.3941 8.15497 8.97934 51.3941 8.15497 8.97934
324 2 51.5799 9.10631 5.8818 51.5799 9.10631 5.8818
325 1 0.893232 10.1777 7.97699 0.893232 10.1777 7.97699
326 2 2.63751 9.62277 9.62022 2.63751 9.62277 9.62022
327 2 2.97302 10.2778 6.52964 2.97302 10.2778 6.52964
328 1 3.7064 11.5688 8.56515 3.7064 11.5688 8.56515
329 2 5.20298 10.9657 -9.56483 5.20298 10.9657 10.4352
330 2 5.96983 11.7109 7.44353 5.96983 11.7109 7.44353
331 1 6.55355 9.6916 8.80067 6.55355 9.6916 8.80067
332 2 8.17225 8.88327 -9.44636 8.17225 8.88327 10.5536
333 2 8.79585 10.4925 7.84495 8.79585 10.4925 7.84495
334 1 9.33687 11.1815 -9.74534 9.33687 11.1815 10.2547
335 2 11.5822 10.4334 -8.6238 11.5822 10.4334 11.3762
336 2 11.2459 11.8988 8.43992 11.2459 11.8988 8.43992
337 1 12.2413 9.73966 9.08662 12.2413 9.73966 9.08662
338 2 14.1197 9.16648 -9.20164 14.1197 9.16648 10.7984
339 2 14.2297 10.0078 7.57624 14.2297 10.0078 7.57624
340 1 15.0958 11.156 9.64809 15.0958 11.156 9.64809
341 2 16.5478 10.5266 -8.52713 16.5478 10.5266 11.4729
342 2 17.2931 11.8838 8.52366 17.2931 11.8838 8.52366
343 1 18.1059 9.59842 9.54803 18.1059 9.59842 9.54803
344 2 20.3955 8.75774 -9.48385 20.3955 8.75774 10.5161
345 2 19.661 10.6718 7.97956 19.661 10.6718 7.97956
346 1 20.9313 11.21 9.9932 20.9313 11.21 9.9932
347 2 23.3801 10.9556 -9.37517 23.3801 10.9556 10.6248
348 2 22.0874 12.3021 8.09079 22.0874 12.3021 8.09079
349 1 23.7311 10.3229 8.25983 23.7311 10.3229 8.25983
350 2 25.5837 9.40347 9.91695 25.5837 9.40347 9.91695
351 2 25.964 10.6988 6.88612 25.964 10.6988 6.88612
352 1 26.5745 11.5485 9.31024 26.5745 11.5485 9.31024
353 2 28.5907 10.8555 -9.41918 28.5907 10.8555 10.5808
354 2 28.3653 12.3324 7.71924 28.3653 12.3324 7.71924
355 1 29.4539 10.2299 8.39366 29.4539 10.2299 8.39366
356 2 31.4219 9.60733 9.67926 31.4219 9.60733 9.67926
357 2 31.2894 11.0762 7.06436 31.2894 11.0762 7.06436
358 1 33.0034 31.1964 -8.6243 33.0034 31.1964 -8.6243
359 2 36.5308 30.2678 -6.8687 36.5308 30.2678 -6.8687
360 2 35.0591 32.0538 -9.70649 35.0591 32.0538 -9.70649
361 1 35.8114 29.7745 -9.2101 35.8114 29.7745 -9.2101
362 2 39.1659 28.4813 -7.52065 39.1659 28.4813 -7.52065
363 2 37.8796 30.6205 9.88211 37.8796 30.6205 -10.1179
364 1 38.7809 30.9394 -7.82476 38.7809 30.9394 -7.82476
365 2 40.5438 30.3543 -5.96877 40.5438 30.3543 -5.96877
366 2 40.7899 31.4016 -9.13562 40.7899 31.4016 -9.13562
367 1 41.4191 29.0885 -8.19513 41.4191 29.0885 -8.19513
368 2 43.0104 28.7251 -6.3638 43.0104 28.7251 -6.3638
369 2 43.3713 28.6163 10.2391 43.3713 28.6163 -9.76086
370 1 44.4318 30.2276 -7.66289 44.4318 30.2276 -7.66289
371 2 46.5526 29.772 -6.40612 46.5526 29.772 -6.40612
372 2 46.0737 30.4665 -9.56476 46.0737 30.4665 -9.56476
373 1 46.992 28.3817 -8.50603 46.992 28.3817 -8.50603
374 2 49.0888 27.0901 -7.92079 49.0888 27.0901 -7.92079
375 2 49.6348 31.6696 -9.33479 49.6348 31.6696 -9.33479
376 1 50.1851 29.4176 -8.18888 50.1851 29.4176 -8.18888
377 2 48.8025 28.9251 9.78936 48.8025 28.9251 -10.2106
378 2 52.0358 29.5974 -9.6936 52.0358 29.5974 -9.6936
379 1 50.9983 32.5587 -7.2445 -0.412467 32.5587 -7.2445
380 2 1.12084 33.0058 -5.33768 1.12084 33.0058 -5.33768
381 2 1.60078 32.2799 -8.71298 1.60078 32.2799 -8.71298
382 1 2.9384 33.7265 -6.89788 2.9384 33.7265 -6.89788
383 2 4.7358 33.4309 -5.23751 4.7358 33.4309 -5.23751
384 2 3.21782 31.4513 -6.32122 3.21782 31.4513 -6.32122
385 1 6.464 12.9793 9.56085 6.464 12.9793 9.56085
386 2 7.67989 12.4393 -8.22858 7.67989 12.4393 11.7714
387 2 8.93611 13.2625 8.88698 8.93611 13.2625 8.88698
388 1 9.10952 14.3746 -9.01908 9.10952 14.3746 10.9809
389 2 10.516 12.7072 -7.77103 10.516 12.7072 12.229
390 2 11.4032 15.0046 9.88961 11.4032 15.0046 9.88961
391 1 12.2731 12.7618 -9.4449 12.2731 12.7618 10.5551
392 2 14.945 12.9592 -8.73773 14.945 12.9592 11.2623
393 2 14.019 13.3405 8.74586 14.019 13.3405 8.74586
394 1 15.2449 33.9028 -7.32596 15.2449 33.9028 -7.32596
395 2 17.4275 33.1578 -6.31505 17.4275 33.1578 -6.31505
396 2 16.5811 35.7647 -8.3434 16.5811 35.7647 -8.3434
397 1 17.8725 12.5976 -9.21239 17.8725 12.5976 10.7876
398 2 19.1661 10.7559 -8.24578 19.1661 10.7559 11.7542
399 2 19.976 13.5305 9.63125 19.976 13.5305 9.63125
400 1 20.9703 33.58 -6.39412 20.9703 33.58 -6.39412
401 2 22.3235 34.4125 -4.45813 22.3235 34.4125 -4.45813
402 2 23.0425 33.8268 -7.86303 23.0425 33.8268 -7.86303
403 1 23.4534 13.1997 9.86085 23.4534 13.1997 9.86085
404 2 25.56 12.9041 -8.7472 25.56 12.9041 11.2528
405 2 24.9147 12.6629 7.9419 24.9147 12.6629 7.9419
406 1 27.2384 33.7211 -6.93986 27.2384 33.7211 -6.93986
407 2 31.1066 33.153 -5.83593 31.1066 33.153 -5.83593
408 2 29.0732 34.7103 -8.33355 29.0732 34.7103 -8.33355
409 1 30.2243 32.5585 -8.02213 30.2243 32.5585 -8.02213
410 2 33.7974 31.753 -6.30751 33.7974 31.753 -6.30751
411 2 32.0579 33.4917 -9.17979 32.0579 33.4917 -9.17979
412 1 33.0287 34.0963 -6.87984 33.0287 34.0963 -6.87984
413 2 35.0546 33.9212 -5.25115 35.0546 33.9212 -5.25115
414 2 35.071 34.6607 -8.4936 35.071 34.6607 -8.4936
415 1 35.9475 32.7035 -7.30537 35.9475 32.7035 -7.30537
416 2 37.983 32.1454 -5.77488 37.983 32.1454 -5.77488
417 2 38.1775 33.1245 -8.82146 38.1775 33.1245 -8.82146
418 1 39.2269 34.1288 -6.72156 39.2269 34.1288 -6.72156
419 2 40.7402 33.4425 -4.9873 40.7402 33.4425 -4.9873
420 2 41.2991 34.2933 -8.12027 41.2991 34.2933 -8.12027
421 1 41.8384 32.2154 -6.9445 41.8384 32.2154 -6.9445
422 2 43.8136 31.6105 -5.57901 43.8136 31.6105 -5.57901
423 2 43.6315 32.3183 -8.76267 43.6315 32.3183 -8.76267
424 1 44.9601 33.4459 -6.9656 44.9601 33.4459 -6.9656
425 2 47.0373 32.7447 -5.6168 47.0373 32.7447 -5.6168
426 2 46.8209 33.6841 -8.82279 46.8209 33.6841 -8.82279
427 1 47.6041 31.5768 -7.79378 47.6041 31.5768 -7.79378
428 2 49.4289 30.8114 -6.15739 49.4289 30.8114 -6.15739
429 2 0.775567 30.314 -7.01456 52.1863 30.314 -7.01456
430 1 48.3127 34.5858 -6.83435 48.3127 34.5858 -6.83435
431 2 49.9628 33.4899 -5.15336 49.9628 33.4899 -5.15336
432 2 50.5056 34.8532 -8.14061 50.5056 34.8532 -8.14061
433 1 51.6727 35.4696 -5.95165 0.261961 35.4696 -5.95165
434 2 2.50894 35.191 -4.72274 2.50894 35.191 -4.72274
435 2 1.99164 35.7612 -8.02291 1.99164 35.7612 -8.02291
436 1 3.49693 37.068 -6.19374 3.49693 37.068 -6.19374
437 2 5.24469 36.3573 -4.48127 5.24469 36.3573 -4.48127
438 2 5.58187 37.3964 -7.57449 5.58187 37.3964 -7.57449
439 1 6.13649 35.2847 -6.48506 6.13649 35.2847 -6.48506
440 2 8.03369 34.8453 -4.89724 8.03369 34.8453 -4.89724
441 2 10.0955 34.5718 -7.12069 10.0955 34.5718 -7.12069
442 1 9.28902 36.7548 -6.11788 9.28902 36.7548 -6.11788
443 2 11.2449 36.5156 -4.49317 11.2449 36.5156 -4.49317
444 2 11.472 37.3188 -7.63437 11.472 37.3188 -7.63437
445 1 12.2811 35.2947 -6.41273 12.2811 35.2947 -6.41273
446 2 14.6958 34.972 -5.22374 14.6958 34.972 -5.22374
447 2 13.9598 35.9625 -8.18302 13.9598 35.9625 -8.18302
448 1 15.3704 37.111 -6.37056 15.3704 37.111 -6.37056
449 2 17.0444 36.4049 -4.53854 17.0444 36.4049 -4.53854
450 2 17.7662 37.8364 -7.44749 17.7662 37.8364 -7.44749
451 1 18.2824 35.5027 -6.56523 18.2824 35.5027 -6.56523
452 2 19.6542 34.7499 -4.57012 19.6542 34.7499 -4.57012
453 2 20.687 35.6352 -7.57803 20.687 35.6352 -7.57803
454 1 21.2842 36.5985 -5.19922 21.2842 36.5985 -5.19922
455 2 23.6033 36.6059 -3.89222 23.6033 36.6059 -3.89222
456 2 23.096 36.9671 -7.06358 23.096 36.9671 -7.06358
457 1 24.3264 35.105 -5.92412 24.3264 35.105 -5.92412
458 2 26.6988 34.8369 -4.79274 26.6988 34.8369 -4.79274
459 2 25.9771 35.5455 -7.84069 25.9771 35.5455 -7.84069
460 1 27.1308 36.9442 -6.13413 27.1308 36.9442 -6.13413
461 2 28.9938 36.5343 -4.39392 28.9938 36.5343 -4.39392
462 2 29.2823 37.4228 -7.4705 29.2823 37.4228 -7.4705
463 1 30.1848 35.4391 -6.26563 30.1848 35.4391 -6.26563
464 2 32.3246 35.3761 -4.80293 32.3246 35.3761 -4.80293
465 2 31.8549 36.0953 -8.026 31.8549 36.0953 -8.026
466 1 33.044 37.3432 -6.08542 33.044 37.3432 -6.08542
467 2 35.1587 37.0878 -4.55468 35.1587 37.0878 -4.55468
468 2 34.8503 37.6248 -7.7649 34.8503 37.6248 -7.7649
469 1 36.182 35.8116 -6.52136 36.182 35.8116 -6.52136
470 2 38.1482 35.6035 -4.8569 38.1482 35.6035 -4.8569
471 2 38.2473 36.0029 -8.12512 38.2473 36.0029 -8.12512
472 1 39.3671 37.5448 -6.16983 39.3671 37.5448 -6.16983
473 2 41.5242 37.0107 -4.41208 41.5242 37.0107 -4.41208
474 2 41.3107 37.1251 -7.65477 41.3107 37.1251 -7.65477
475 1 42.1833 35.1916 -5.94433 42.1833 35.1916 -5.94433
476 2 44.2704 34.2991 -4.56322 44.2704 34.2991 -4.56322
477 2 44.0944 35.9975 -7.48774 44.0944 35.9975 -7.48774
478 1 41.3589 39.8306 -7.91344 41.3589 39.8306 -7.91344
479 2 44.7995 38.0174 -4.17833 44.7995 38.0174 -4.17833
480 2 44.0793 39.3873 -7.81597 44.0793 39.3873 -7.81597
481 1 45.666 36.1391 -5.47014 45.666 36.1391 -5.47014
482 2 47.8869 35.3904 -4.44356 47.8869 35.3904 -4.44356
483 2 47.0904 36.9118 -7.38278 47.0904 36.9118 -7.38278
484 1 49.0045 37.3793 -5.69813 49.0045 37.3793 -5.69813
485 2 50.813 36.8989 -4.03502 50.813 36.8989 -4.03502
486 2 50.8956 37.4983 -7.3041 50.8956 37.4983 -7.3041
487 1 52.0751 38.7193 -5.43599 0.664332 38.7193 -5.43599
488 2 2.59391 38.0217 -4.06517 2.59391 38.0217 -4.06517
489 2 2.44535 39.2903 -7.09993 2.44535 39.2903 -7.09993
490 1 3.59715 40.1464 -5.04906 3.59715 40.1464 -5.04906
491 2 5.55522 39.7717 -3.41233 5.55522 39.7717 -3.41233
492 2 5.42641 40.3863 -6.65311 5.42641 40.3863 -6.65311
493 1 6.46751 38.421 -5.41232 6.46751 38.421 -5.41232
494 2 8.35531 37.795 -3.92296 8.35531 37.795 -3.92296
495 2 8.28459 38.9954 -6.97921 8.28459 38.9954 -6.97921
496 1 9.31896 39.9564 -4.95266 9.31896 39.9564 -4.95266
497 2 11.4759 39.4909 -3.53894 11.4759 39.4909 -3.53894
498 2 11.1825 40.5664 -6.59401 11.1825 40.5664 -6.59401
499 1 12.2712 38.4515 -5.67939 12.2712 38.4515 -5.67939
500 2 14.2956 38.0724 -4.28673 14.2956 38.0724 -4.28673
501 2 14.1813 39.1779 -7.2998 14.1813 39.1779 -7.2998
502 1 15.3739 40.1868 -5.20283 15.3739 40.1868 -5.20283
503 2 17.0265 39.472 -3.26475 17.0265 39.472 -3.26475
504 2 17.5797 40.5682 -6.41091 17.5797 40.5682 -6.41091
505 1 18.2935 38.4456 -5.1352 18.2935 38.4456 -5.1352
506 2 19.932 37.8949 -3.31262 19.932 37.8949 -3.31262
507 2 20.5018 38.7627 -6.40376 20.5018 38.7627 -6.40376
508 1 21.1548 39.7647 -4.29615 21.1548 39.7647 -4.29615
509 2 23.4226 39.4862 -3.03034 23.4226 39.4862 -3.03034
510 2 22.919 40.3936 -6.11975 22.919 40.3936 -6.11975
511 1 24.2255 38.3693 -5.35473 24.2255 38.3693 -5.35473
512 2 26.1786 37.9567 -3.94697 26.1786 37.9567 -3.94697
513 2 26.0963 38.9273 -7.05242 26.0963 38.9273 -7.05242
514 1 26.9756 40.0264 -4.94482 26.9756 40.0264 -4.94482
515 2 28.9899 39.7333 -3.39905 28.9899 39.7333 -3.39905
516 2 28.8127 40.6147 -6.52342 28.8127 40.6147 -6.52342
517 1 29.9884 38.6106 -5.44753 29.9884 38.6106 -5.44753
518 2 32.0154 38.2802 -3.96785 32.0154 38.2802 -3.96785
519 2 31.8141 39.1541 -7.1684 31.8141 39.1541 -7.1684
520 1 32.773 40.3389 -5.08817 32.773 40.3389 -5.08817
521 2 34.9384 39.9243 -3.8259 34.9384 39.9243 -3.8259
522 2 34.3903 41.0099 -6.82349 34.3903 41.0099 -6.82349
523 1 35.8708 39.0107 -5.98748 35.8708 39.0107 -5.98748
524 2 38.0383 39.1369 -4.59917 38.0383 39.1369 -4.59917
525 2 36.6703 40.261 -7.92701 36.6703 40.261 -7.92701
526 1 38.5487 40.8567 -6.32661 38.5487 40.8567 -6.32661
527 2 41.032 39.7322 -5.52816 41.032 39.7322 -5.52816
528 2 39.0098 39.0478 -8.17691 39.0098 39.0478 -8.17691
529 1 43.0238 38.0706 -5.9776 43.0238 38.0706 -5.9776
530 2 39.4993 41.5639 -4.18387 39.4993 41.5639 -4.18387
531 2 39.9611 41.9487 -7.97148 39.9611 41.9487 -7.97148
532 1 43.7206 41.115 -6.05487 43.7206 41.115 -6.05487
533 2 45.3964 40.7136 -4.17585 45.3964 40.7136 -4.17585
534 2 45.946 41.3854 -7.34844 45.946 41.3854 -7.34844
535 1 46.3477 39.1938 -6.03315 46.3477 39.1938 -6.03315
536 2 47.7822 38.6988 -4.04518 47.7822 38.6988 -4.04518
537 2 48.6514 39.3094 -7.08229 48.6514 39.3094 -7.08229
538 1 49.2414 40.5241 -4.93744 49.2414 40.5241 -4.93744
539 2 51.2031 40.1473 -3.45668 51.2031 40.1473 -3.45668
540 2 51.2256 40.7129 -6.60192 51.2256 40.7129 -6.60192
541 1 0.824387 41.9837 -4.69708 0.824387 41.9837 -4.69708
542 2 2.59956 41.4382 -3.01963 2.59956 41.4382 -3.01963
543 2 2.76883 42.3089 -6.22553 2.76883 42.3089 -6.22553