ITEM: TIMESTEP
2692000
ITEM: NUMBER OF ATOMS
810
ITEM: BOX BOUNDS pp pp pp
8.0341777045796159e-01 5.2214187229542503e+01
-5.8440357866178569e+00 5.6860250786616724e+01
-1.0000000000000000e+01 1.0000000000000000e+01
ITEM: ATOMS id type x y z xu yu zu
1 1 0.945295 56.2297 0.0622981 0.945295 -6.47455 0.0622981
2 2 2.69309 55.6472 1.8952 2.69309 -7.05714 1.8952
3 2 3.09737 56.5169 -1.28384 3.09737 -6.1874 -1.28384
4 1 3.79691 -5.03918 0.930775 3.79691 -5.03918 0.930775
5 2 5.57572 -5.44001 2.81131 5.57572 -5.44001 2.81131
6 2 5.94978 -4.61461 -0.32286 5.94978 -4.61461 -0.32286
7 1 6.69063 55.9671 0.898242 6.69063 -6.73714 0.898242
8 2 8.36959 55.3614 2.66937 8.36959 -7.3429 2.66937
9 2 8.91085 56.5261 -0.414954 8.91085 -6.17821 -0.414954
10 1 9.51621 -5.23217 1.89121 9.51621 -5.23217 1.89121
11 2 11.4375 -5.50091 3.38588 11.4375 -5.50091 3.38588
12 2 11.3555 -4.81926 0.206958 11.3555 -4.81926 0.206958
13 1 12.3754 55.9057 1.45283 12.3754 -6.79862 1.45283
14 2 14.442 55.4723 2.75426 14.442 -7.23199 2.75426
15 2 14.1432 56.299 -0.276749 14.1432 -6.40528 -0.276749
16 1 15.1593 -5.1233 1.6115 15.1593 -5.1233 1.6115
17 2 17.166 -5.57102 3.02321 17.166 -5.57102 3.02321
18 2 16.9514 -4.94166 -0.0708287 16.9514 -4.94166 -0.0708287
19 1 18.0901 55.8575 1.14254 18.0901 -6.84676 1.14254
20 2 20.2422 55.5607 2.56473 20.2422 -7.14363 2.56473
21 2 19.8349 56.4703 -0.508175 19.8349 -6.23398 -0.508175
22 1 20.9682 -5.14228 1.38777 20.9682 -5.14228 1.38777
23 2 23.1301 -5.60438 2.73279 23.1301 -5.60438 2.73279
24 2 22.7327 -4.60602 -0.343211 22.7327 -4.60602 -0.343211
25 1 23.9368 56.0895 0.638202 23.9368 -6.61478 0.638202
26 2 25.7935 55.6951 2.17747 25.7935 -7.00923 2.17747
27 2 25.8403 56.6375 -0.929998 25.8403 -6.06675 -0.929998
28 1 26.7024 -4.87313 1.13647 26.7024 -4.87313 1.13647
29 2 28.6208 -5.41074 2.69369 28.6208 -5.41074 2.69369
30 2 28.5951 -4.35078 -0.437358 28.5951 -4.35078 -0.437358
31 1 29.4955 56.2133 0.630676 29.4955 -6.49102 0.630676
32 2 31.7468 55.7284 1.91703 31.7468 -6.97588 1.91703
33 2 31.2083 56.7618 -1.1776 31.2083 -5.94251 -1.1776
34 1 32.4253 -4.84395 0.758254 32.4253 -4.84395 0.758254
35 2 34.4883 -5.29077 2.09267 34.4883 -5.29077 2.09267
36 2 34.0141 -4.25316 -1.0093 34.0141 -4.25316 -1.0093
37 1 35.2457 56.4508 -0.196843 35.2457 -6.25353 -0.196843
38 2 37.2708 55.7713 1.20628 37.2708 -6.93295 1.20628
39 2 37.1256 -5.51173 -1.84946 37.1256 -5.51173 -1.84946
40 1 38.1677 -4.7349 0.298815 38.1677 -4.7349 0.298815
41 2 40.1094 -5.27229 1.67752 40.1094 -5.27229 1.67752
42 2 39.9014 -4.01644 -1.41917 39.9014 -4.01644 -1.41917
43 1 40.9861 56.5133 -0.550697 40.9861 -6.191 -0.550697
44 2 42.8794 55.7591 1.06968 42.8794 -6.94515 1.06968
45 2 42.9438 -5.5397 -1.99495 42.9438 -5.5397 -1.99495
46 1 43.7729 -4.74075 0.262406 43.7729 -4.74075 0.262406
47 2 45.6899 -5.39606 1.71103 45.6899 -5.39606 1.71103
48 2 45.7603 -4.2904 -1.33834 45.7603 -4.2904 -1.33834
49 1 46.6419 56.3905 -0.461655 46.6419 -6.31378 -0.461655
50 2 48.3896 55.5919 1.12819 48.3896 -7.11242 1.12819
51 2 48.625 -5.76505 -1.85055 48.625 -5.76505 -1.85055
52 1 49.4688 -4.91943 0.390589 49.4688 -4.91943 0.390589
53 2 51.295 -5.55378 2.1762 51.295 -5.55378 2.1762
54 2 51.4434 -4.29334 -1.01195 51.4434 -4.29334 -1.01195
55 1 0.826195 -3.41387 1.30024 0.826195 -3.41387 1.30024
56 2 2.7553 -3.8843 2.90072 2.7553 -3.8843 2.90072
57 2 2.97428 -2.96188 -0.240317 2.97428 -2.96188 -0.240317
58 1 3.85654 -1.89122 1.8577 3.85654 -1.89122 1.8577
59 2 5.43874 -2.42845 3.64156 5.43874 -2.42845 3.64156
60 2 5.99202 -1.33806 0.580645 5.99202 -1.33806 0.580645
61 1 6.73389 -3.38502 1.80879 6.73389 -3.38502 1.80879
62 2 8.32363 -3.89571 3.74201 8.32363 -3.89571 3.74201
63 2 8.84458 -3.1204 0.596459 8.84458 -3.1204 0.596459
64 1 9.4547 -1.90299 2.68337 9.4547 -1.90299 2.68337
65 2 11.4719 -2.2827 4.18274 11.4719 -2.2827 4.18274
66 2 11.232 -1.68808 0.935333 11.232 -1.68808 0.935333
67 1 12.3106 -3.5916 2.16297 12.3106 -3.5916 2.16297
68 2 14.3615 -3.80879 3.60114 14.3615 -3.80879 3.60114
69 2 14.1141 -3.14616 0.427064 14.1141 -3.14616 0.427064
70 1 15.2234 -1.93078 2.24824 15.2234 -1.93078 2.24824
71 2 17.2709 -2.20231 3.70437 17.2709 -2.20231 3.70437
72 2 17.0172 -1.4342 0.609702 17.0172 -1.4342 0.609702
73 1 18.0772 -3.55012 1.72563 18.0772 -3.55012 1.72563
74 2 19.9193 -3.73199 3.33478 19.9193 -3.73199 3.33478
75 2 19.8809 -3.08146 0.117773 19.8809 -3.08146 0.117773
76 1 20.965 -1.80769 1.99559 20.965 -1.80769 1.99559
77 2 22.9344 -2.34625 3.54108 22.9344 -2.34625 3.54108
78 2 22.8068 -1.41711 0.403541 22.8068 -1.41711 0.403541
79 1 23.8262 -3.39203 1.60002 23.8262 -3.39203 1.60002
80 2 25.7747 -3.82429 3.18927 25.7747 -3.82429 3.18927
81 2 25.7086 -2.90684 -0.0407144 25.7086 -2.90684 -0.0407144
82 1 26.6513 -1.7359 2.06459 26.6513 -1.7359 2.06459
83 2 28.6218 -2.24705 3.64056 28.6218 -2.24705 3.64056
84 2 28.5709 -1.35064 0.528445 28.5709 -1.35064 0.528445
85 1 29.5926 -3.40688 1.57881 29.5926 -3.40688 1.57881
86 2 31.6313 -3.9127 2.97069 31.6313 -3.9127 2.97069
87 2 31.3049 -2.75087 -0.170949 31.3049 -2.75087 -0.170949
88 1 32.4727 -1.77854 1.87373 32.4727 -1.77854 1.87373
89 2 34.4588 -2.31116 3.14346 34.4588 -2.31116 3.14346
90 2 34.1353 -1.1233 0.208258 34.1353 -1.1233 0.208258
91 1 35.2876 -3.14702 0.914599 35.2876 -3.14702 0.914599
92 2 37.3841 -3.60218 2.35421 37.3841 -3.60218 2.35421
93 2 37.0888 -2.64019 -0.752197 37.0888 -2.64019 -0.752197
94 1 38.1996 -1.5948 1.28214 38.1996 -1.5948 1.28214
95 2 40.0721 -1.97489 2.84955 40.0721 -1.97489 2.84955
96 2 40.0311 -1.04853 -0.289552 40.0311 -1.04853 -0.289552
97 1 41.0022 -3.10537 0.742212 41.0022 -3.10537 0.742212
98 2 42.935 -3.63703 2.29269 42.935 -3.63703 2.29269
99 2 42.7869 -2.58921 -0.86391 42.7869 -2.58921 -0.86391
100 1 43.8011 -1.51387 1.14346 43.8011 -1.51387 1.14346
101 2 45.7112 -1.97782 2.76223 45.7112 -1.97782 2.76223
102 2 45.7551 -1.19575 -0.387386 45.7551 -1.19575 -0.387386
103 1 46.6463 -3.16794 0.713723 46.6463 -3.16794 0.713723
104 2 48.4624 -3.79113 2.41662 48.4624 -3.79113 2.41662
105 2 48.7271 -2.6734 -0.672299 48.7271 -2.6734 -0.672299
106 1 49.4929 -1.7515 1.49789 49.4929 -1.7515 1.49789
107 2 51.2643 -2.16695 3.23386 51.2643 -2.16695 3.23386
108 2 51.4682 -1.33532 0.107559 51.4682 -1.33532 0.107559
109 1 0.905314 -0.193256 2.15582 0.905314 -0.193256 2.15582
110 2 2.78703 -0.725529 3.85788 2.78703 -0.725529 3.85788
111 2 2.98819 0.20943 0.701133 2.98819 0.20943 0.701133
112 1 3.77046 1.34608 2.78181 3.77046 1.34608 2.78181
113 2 5.48046 0.929762 4.63315 5.48046 0.929762 4.63315
114 2 5.92982 1.66584 1.43137 5.92982 1.66584 1.43137
115 1 6.54162 -0.396616 2.82601 6.54162 -0.396616 2.82601
116 2 8.41482 -0.594589 4.44579 8.41482 -0.594589 4.44579
117 2 8.56277 -0.0142737 1.34013 8.56277 -0.0142737 1.34013
118 1 9.47806 1.27102 3.15718 9.47806 1.27102 3.15718
119 2 11.3979 0.727528 4.80592 11.3979 0.727528 4.80592
120 2 11.3883 1.52401 1.62219 11.3883 1.52401 1.62219
121 1 12.4201 -0.420566 2.86153 12.4201 -0.420566 2.86153
122 2 14.5033 -0.622888 4.39503 14.5033 -0.622888 4.39503
123 2 14.1326 0.0907296 1.2079 14.1326 0.0907296 1.2079
124 1 15.2455 1.29612 3.11813 15.2455 1.29612 3.11813
125 2 17.2358 0.95481 4.5366 17.2358 0.95481 4.5366
126 2 16.857 1.78805 1.31712 16.857 1.78805 1.31712
127 1 18.0722 -0.154685 2.50117 18.0722 -0.154685 2.50117
128 2 20.0748 -0.427509 3.9396 20.0748 -0.427509 3.9396
129 2 19.8824 0.0681816 0.739782 19.8824 0.0681816 0.739782
130 1 20.8977 1.37059 2.61519 20.8977 1.37059 2.61519
131 2 22.6815 1.00031 4.33058 22.6815 1.00031 4.33058
132 2 22.8317 1.63722 1.11632 22.8317 1.63722 1.11632
133 1 23.7554 -0.279852 2.40415 23.7554 -0.279852 2.40415
134 2 25.6516 -0.52268 4.03849 25.6516 -0.52268 4.03849
135 2 25.6126 0.0843149 0.757811 25.6126 0.0843149 0.757811
136 1 26.5509 1.35741 2.67051 26.5509 1.35741 2.67051
137 2 28.4805 1.2768 4.37987 28.4805 1.2768 4.37987
138 2 28.4468 1.52835 1.16306 28.4468 1.52835 1.16306
139 1 29.56 -0.243155 2.56773 29.56 -0.243155 2.56773
140 2 31.6604 -0.597843 4.01785 31.6604 -0.597843 4.01785
141 2 31.4429 0.178313 0.850965 31.4429 0.178313 0.850965
142 1 32.4806 1.33311 2.80773 32.4806 1.33311 2.80773
143 2 34.4735 1.05662 4.20588 34.4735 1.05662 4.20588
144 2 34.2056 1.8423 1.03398 34.2056 1.8423 1.03398
145 1 35.341 -0.149867 2.13676 35.341 -0.149867 2.13676
146 2 37.5172 -0.521666 3.40092 37.5172 -0.521666 3.40092
147 2 37.0919 0.510152 0.307653 37.0919 0.510152 0.307653
148 1 38.1687 1.63846 2.27594 38.1687 1.63846 2.27594
149 2 40.1445 1.31165 3.78677 40.1445 1.31165 3.78677
150 2 40.0697 2.14177 0.655194 40.0697 2.14177 0.655194
151 1 41.0163 0.110883 1.82566 41.0163 0.110883 1.82566
152 2 43.0288 -0.3591 3.25576 43.0288 -0.3591 3.25576
153 2 42.9139 0.585414 0.154742 42.9139 0.585414 0.154742
154 1 43.9401 1.70551 2.15784 43.9401 1.70551 2.15784
155 2 45.7042 1.0776 3.63467 45.7042 1.0776 3.63467
156 2 45.7899 2.09795 0.526332 45.7899 2.09795 0.526332
157 1 46.7379 -0.0208178 1.5819 46.7379 -0.0208178 1.5819
158 2 48.4322 -0.592933 3.42278 48.4322 -0.592933 3.42278
159 2 48.7137 0.150044 0.191599 48.7137 0.150044 0.191599
160 1 49.5897 1.34044 2.33285 49.5897 1.34044 2.33285
161 2 51.3115 1.07304 4.04681 51.3115 1.07304 4.04681
162 2 51.6091 1.81112 0.874147 51.6091 1.81112 0.874147
163 1 1.02081 3.00032 2.94109 1.02081 3.00032 2.94109
164 2 2.81308 2.5891 4.70615 2.81308 2.5891 4.70615
165 2 3.05518 3.34525 1.49827 3.05518 3.34525 1.49827
166 1 3.82385 4.56745 3.55294 3.82385 4.56745 3.55294
167 2 5.34091 4.05824 5.37001 5.34091 4.05824 5.37001
168 2 5.91715 4.91069 2.26161 5.91715 4.91069 2.26161
169 1 6.59085 2.8586 3.55348 6.59085 2.8586 3.55348
170 2 8.52836 2.46097 5.27476 8.52836 2.46097 5.27476
171 2 8.52157 3.37396 2.03808 8.52157 3.37396 2.03808
172 1 9.53532 4.44663 4.19649 9.53532 4.44663 4.19649
173 2 11.4427 3.71407 5.72703 11.4427 3.71407 5.72703
174 2 11.4598 4.87665 2.69127 11.4598 4.87665 2.69127
175 1 12.3826 2.75743 3.6331 12.3826 2.75743 3.6331
176 2 14.3072 2.4253 5.24077 14.3072 2.4253 5.24077
177 2 14.1458 3.23646 1.98056 14.1458 3.23646 1.98056
178 1 15.1549 4.37765 4.00431 15.1549 4.37765 4.00431
179 2 17.3654 4.01653 5.30902 17.3654 4.01653 5.30902
180 2 16.8936 4.93732 2.36861 16.8936 4.93732 2.36861
181 1 18.0694 2.91604 3.23559 18.0694 2.91604 3.23559
182 2 20.1702 2.56636 4.70724 20.1702 2.56636 4.70724
183 2 19.7054 3.46143 1.51877 19.7054 3.46143 1.51877
184 1 20.8718 4.57129 3.44084 20.8718 4.57129 3.44084
185 2 22.867 4.3675 5.15012 22.867 4.3675 5.15012
186 2 22.7643 4.87519 1.89596 22.7643 4.87519 1.89596
187 1 23.7691 2.92843 3.17079 23.7691 2.92843 3.17079
188 2 25.7029 2.61419 4.66205 25.7029 2.61419 4.66205
189 2 25.5411 3.21193 1.46234 25.5411 3.21193 1.46234
190 1 26.5955 4.66569 3.44181 26.5955 4.66569 3.44181
191 2 28.6858 4.43333 4.83857 28.6858 4.43333 4.83857
192 2 28.4198 5.029 1.69094 28.4198 5.029 1.69094
193 1 29.5464 3.02295 2.92067 29.5464 3.02295 2.92067
194 2 31.4416 2.72729 4.57474 31.4416 2.72729 4.57474
195 2 31.5717 3.20864 1.36611 31.5717 3.20864 1.36611
196 1 32.3361 4.6634 3.2274 32.3361 4.6634 3.2274
197 2 34.1899 4.22134 4.84626 34.1899 4.22134 4.84626
198 2 34.3036 4.89225 1.72525 34.3036 4.89225 1.72525
199 1 35.2384 3.04853 2.9059 35.2384 3.04853 2.9059
200 2 37.2878 2.81352 4.34838 37.2878 2.81352 4.34838
201 2 37.0896 3.56776 1.30788 37.0896 3.56776 1.30788
202 1 38.0835 4.76466 3.2046 38.0835 4.76466 3.2046
203 2 40.0518 4.19668 4.67844 40.0518 4.19668 4.67844
204 2 40.0599 5.55566 1.65284 40.0599 5.55566 1.65284
205 1 41.0673 3.34709 2.50969 41.0673 3.34709 2.50969
206 2 42.8234 2.80416 4.24114 42.8234 2.80416 4.24114
207 2 42.9393 3.83814 0.978111 42.9393 3.83814 0.978111
208 1 43.8343 4.90009 3.10177 43.8343 4.90009 3.10177
209 2 45.8016 4.21765 4.56964 45.8016 4.21765 4.56964
210 2 45.8434 5.18503 1.34198 45.8434 5.18503 1.34198
211 1 46.7585 3.12413 2.6022 46.7585 3.12413 2.6022
212 2 48.5818 2.72675 4.21533 48.5818 2.72675 4.21533
213 2 48.803 3.39032 0.984992 48.803 3.39032 0.984992
214 1 49.579 4.66891 3.05175 49.579 4.66891 3.05175
215 2 51.3869 4.31342 4.79364 51.3869 4.31342 4.79364
216 2 51.7926 5.06559 1.72538 51.7926 5.06559 1.72538
217 1 1.03159 6.21389 3.79422 1.03159 6.21389 3.79422
218 2 2.65388 5.5599 5.61448 2.65388 5.5599 5.61448
219 2 3.03267 6.70019 2.50959 3.03267 6.70019 2.50959
220 1 3.77393 7.70256 4.67276 3.77393 7.70256 4.67276
221 2 5.57036 7.16384 6.43345 5.57036 7.16384 6.43345
222 2 5.81599 7.95732 3.22861 5.81599 7.95732 3.22861
223 1 6.61354 6.00166 4.43208 6.61354 6.00166 4.43208
224 2 8.43484 5.5273 6.19757 8.43484 5.5273 6.19757
225 2 8.64345 6.62585 3.04049 8.64345 6.62585 3.04049
226 1 9.45251 7.62215 5.20687 9.45251 7.62215 5.20687
227 2 11.3628 7.13206 6.80432 11.3628 7.13206 6.80432
228 2 11.3209 7.95163 3.64462 11.3209 7.95163 3.64462
229 1 12.4368 5.88223 4.83271 12.4368 5.88223 4.83271
230 2 14.576 5.51031 6.15595 14.576 5.51031 6.15595
231 2 14.2106 6.51771 3.03518 14.2106 6.51771 3.03518
232 1 15.1873 7.67225 5.04406 15.1873 7.67225 5.04406
233 2 17.1734 7.10169 6.42122 17.1734 7.10169 6.42122
234 2 16.9249 8.31284 3.39641 16.9249 8.31284 3.39641
235 1 18.0655 6.13468 4.14083 18.0655 6.13468 4.14083
236 2 20.2069 5.79557 5.48923 20.2069 5.79557 5.48923
237 2 19.7091 6.62293 2.36058 19.7091 6.62293 2.36058
238 1 20.9117 7.79992 4.34535 20.9117 7.79992 4.34535
239 2 22.8812 7.57161 5.83378 22.8812 7.57161 5.83378
240 2 22.5874 8.14665 2.52113 22.5874 8.14665 2.52113
241 1 23.7586 6.25545 3.74613 23.7586 6.25545 3.74613
242 2 25.7807 6.02597 5.25631 25.7807 6.02597 5.25631
243 2 25.7113 6.4492 2.03701 25.7113 6.4492 2.03701
244 1 26.6385 7.87878 3.84847 26.6385 7.87878 3.84847
245 2 28.5776 7.45554 5.3805 28.5776 7.45554 5.3805
246 2 28.5935 8.15624 2.25899 28.5935 8.15624 2.25899
247 1 29.5821 6.2774 3.5026 29.5821 6.2774 3.5026
248 2 31.4388 5.78413 5.18522 31.4388 5.78413 5.18522
249 2 31.501 6.67864 2.05304 31.501 6.67864 2.05304
250 1 32.4588 7.80108 4.05568 32.4588 7.80108 4.05568
251 2 34.2444 7.26388 5.63836 34.2444 7.26388 5.63836
252 2 34.3387 8.32437 2.54357 34.3387 8.32437 2.54357
253 1 35.2328 6.21689 3.5893 35.2328 6.21689 3.5893
254 2 37.1105 5.93261 5.13775 37.1105 5.93261 5.13775
255 2 37.069 6.68362 1.94198 37.069 6.68362 1.94198
256 1 38.0125 7.87412 3.92732 38.0125 7.87412 3.92732
257 2 41.6609 8.41159 5.16676 41.6609 8.41159 5.16676
258 2 40.0165 8.58994 2.79839 40.0165 8.58994 2.79839
259 1 40.9129 6.44247 3.82075 40.9129 6.44247 3.82075
260 2 43.0647 5.72949 5.28861 43.0647 5.72949 5.28861
261 2 42.8372 7.06774 2.34425 42.8372 7.06774 2.34425
262 1 43.8768 7.92833 4.33155 43.8768 7.92833 4.33155
263 2 46.146 7.59496 5.65484 46.146 7.59496 5.65484
264 2 45.7416 8.43294 2.5599 45.7416 8.43294 2.5599
265 1 46.7303 6.36791 3.49925 46.7303 6.36791 3.49925
266 2 48.577 5.73209 5.1123 48.577 5.73209 5.1123
267 2 48.6739 6.88373 2.06582 48.6739 6.88373 2.06582
268 1 49.565 7.8761 4.22431 49.565 7.8761 4.22431
269 2 51.415 7.39867 5.78127 51.415 7.39867 5.78127
270 2 51.4413 8.29202 2.62669 51.4413 8.29202 2.62669
271 1 0.97488 9.46628 4.53559 0.97488 9.46628 4.53559
272 2 2.80126 9.42374 6.25099 2.80126 9.42374 6.25099
273 2 2.99431 9.46475 2.98843 2.99431 9.46475 2.98843
274 1 3.8044 11.0507 4.79363 3.8044 11.0507 4.79363
275 2 5.37951 10.7418 6.79253 5.37951 10.7418 6.79253
276 2 6.00246 11.1477 3.59591 6.00246 11.1477 3.59591
277 1 6.66297 9.28682 5.26976 6.66297 9.28682 5.26976
278 2 8.44681 8.88493 7.02852 8.44681 8.88493 7.02852
279 2 8.67906 9.6724 3.85207 8.67906 9.6724 3.85207
280 1 9.5442 10.8691 5.84226 9.5442 10.8691 5.84226
281 2 11.3145 10.3551 7.51769 11.3145 10.3551 7.51769
282 2 11.6049 11.0934 4.43912 11.6049 11.0934 4.43912
283 1 12.3114 9.04875 5.62199 12.3114 9.04875 5.62199
284 2 14.2667 8.79631 7.14051 14.2667 8.79631 7.14051
285 2 14.1282 9.62148 3.97253 14.1282 9.62148 3.97253
286 1 15.2064 10.7826 5.96429 15.2064 10.7826 5.96429
287 2 17.0738 10.1925 7.56532 17.0738 10.1925 7.56532
288 2 17.1258 11.3931 4.48191 17.1258 11.3931 4.48191
289 1 18.1077 9.25064 5.44444 18.1077 9.25064 5.44444
290 2 20.3123 8.98788 6.57215 20.3123 8.98788 6.57215
291 2 19.5618 9.71474 3.4516 19.5618 9.71474 3.4516
292 1 20.8601 11.0935 5.1356 20.8601 11.0935 5.1356
293 2 23.1571 11.1084 6.33743 23.1571 11.1084 6.33743
294 2 22.4859 11.3767 3.12117 22.4859 11.3767 3.12117
295 1 23.7705 9.58034 4.3773 23.7705 9.58034 4.3773
296 2 25.6474 9.0647 5.94303 25.6474 9.0647 5.94303
297 2 25.5756 9.88842 2.76118 25.5756 9.88842 2.76118
298 1 26.5915 11.0194 4.75283 26.5915 11.0194 4.75283
299 2 28.6715 10.7416 6.25577 28.6715 10.7416 6.25577
300 2 28.485 11.3897 2.99714 28.485 11.3897 2.99714
301 1 29.518 9.44739 4.18379 29.518 9.44739 4.18379
302 2 31.2506 9.05349 5.95172 31.2506 9.05349 5.95172
303 2 31.6266 9.81974 2.75366 31.6266 9.81974 2.75366
304 1 32.3281 11.0894 4.75257 32.3281 11.0894 4.75257
305 2 34.4348 11.1718 6.20601 34.4348 11.1718 6.20601
306 2 34.2509 11.3932 3.26515 34.2509 11.3932 3.26515
307 1 35.1936 9.40217 4.66368 35.1936 9.40217 4.66368
308 2 37.4252 9.58814 5.72706 37.4252 9.58814 5.72706
309 2 36.9223 9.8327 2.75272 36.9223 9.8327 2.75272
310 1 38.5751 25.8689 -6.51972 38.5751 25.8689 -6.51972
311 2 39.3285 23.564 -6.07198 39.3285 23.564 -6.07198
312 2 40.6802 26.4633 -7.38989 40.6802 26.4633 -7.38989
313 1 41.7764 24.1775 -6.67813 41.7764 24.1775 -6.67813
314 2 41.4242 24.6236 -4.23551 41.4242 24.6236 -4.23551
315 2 43.5471 22.7854 -5.62702 43.5471 22.7854 -5.62702
316 1 43.882 24.862 -4.31827 43.882 24.862 -4.31827
317 2 46.0174 23.9424 -3.32195 46.0174 23.9424 -3.32195
318 2 45.7058 24.8021 -6.10389 45.7058 24.8021 -6.10389
319 1 46.758 9.69259 4.53917 46.758 9.69259 4.53917
320 2 48.7688 9.19817 6.08461 48.7688 9.19817 6.08461
321 2 48.6941 9.81678 3.01292 48.6941 9.81678 3.01292
322 1 49.6116 11.1768 4.85154 49.6116 11.1768 4.85154
323 2 51.6907 10.9477 6.31019 51.6907 10.9477 6.31019
324 2 51.4872 11.2943 3.11972 51.4872 11.2943 3.11972
325 1 1.10777 12.869 4.88299 1.10777 12.869 4.88299
326 2 2.96022 12.5936 6.58379 2.96022 12.5936 6.58379
327 2 2.88739 12.7841 3.35007 2.88739 12.7841 3.35007
328 1 3.91157 14.4516 5.07184 3.91157 14.4516 5.07184
329 2 5.44605 14.2258 6.97869 5.44605 14.2258 6.97869
330 2 6.0372 14.1219 3.87801 6.0372 14.1219 3.87801
331 1 6.69305 12.4776 5.6427 6.69305 12.4776 5.6427
332 2 8.17303 12.0456 7.67884 8.17303 12.0456 7.67884
333 2 8.85723 12.852 4.54359 8.85723 12.852 4.54359
334 1 9.44099 14.1587 6.70571 9.44099 14.1587 6.70571
335 2 11.3372 13.6684 8.36973 11.3372 13.6684 8.36973
336 2 11.4891 14.3016 5.02556 11.4891 14.3016 5.02556
337 1 12.378 12.2983 6.4885 12.378 12.2983 6.4885
338 2 14.3826 11.9311 7.9505 14.3826 11.9311 7.9505
339 2 14.1281 12.6148 4.70752 14.1281 12.6148 4.70752
340 1 15.0909 13.962 6.62539 15.0909 13.962 6.62539
341 2 16.6506 13.7845 8.44668 16.6506 13.7845 8.44668
342 2 17.1407 14.3171 5.26651 17.1407 14.3171 5.26651
343 1 18.0745 12.3763 6.64131 18.0745 12.3763 6.64131
344 2 20.4653 11.8358 7.43891 20.4653 11.8358 7.43891
345 2 19.399 13.0707 4.55377 19.399 13.0707 4.55377
346 1 20.7648 14.1485 6.33833 20.7648 14.1485 6.33833
347 2 23.0371 13.9084 7.10177 23.0371 13.9084 7.10177
348 2 22.0153 14.8864 4.20967 22.0153 14.8864 4.20967
349 1 23.6264 12.9386 4.67818 23.6264 12.9386 4.67818
350 2 25.4955 12.3298 6.51388 25.4955 12.3298 6.51388
351 2 25.8679 12.8474 3.29202 25.8679 12.8474 3.29202
352 1 26.5395 14.2788 5.36366 26.5395 14.2788 5.36366
353 2 28.5935 14.1181 6.82255 28.5935 14.1181 6.82255
354 2 28.4371 14.6908 3.83721 28.4371 14.6908 3.83721
355 1 29.4218 12.6699 4.95642 29.4218 12.6699 4.95642
356 2 31.6077 13.0219 6.19501 31.6077 13.0219 6.19501
357 2 31.3029 12.9627 3.33763 31.3029 12.9627 3.33763
358 1 33.042 28.9697 -5.25931 33.042 28.9697 -5.25931
359 2 36.4827 28.327 -3.64747 36.4827 28.327 -3.64747
360 2 35.1053 29.5641 -6.56313 35.1053 29.5641 -6.56313
361 1 35.8859 27.4911 -5.85974 35.8859 27.4911 -5.85974
362 2 39.0926 26.4445 -4.26559 39.0926 26.4445 -4.26559
363 2 37.8331 28.2267 -7.0612 37.8331 28.2267 -7.0612
364 1 38.6505 28.9156 -4.81902 38.6505 28.9156 -4.81902
365 2 40.5556 28.4974 -3.02938 40.5556 28.4974 -3.02938
366 2 40.5514 29.1827 -6.34748 40.5514 29.1827 -6.34748
367 1 41.312 27.0169 -4.98035 41.312 27.0169 -4.98035
368 2 42.95 26.8101 -2.96099 42.95 26.8101 -2.96099
369 2 43.422 26.304 -6.25027 43.422 26.304 -6.25027
370 1 44.3283 28.1567 -4.49566 44.3283 28.1567 -4.49566
371 2 46.1239 27.854 -2.58971 46.1239 27.854 -2.58971
372 2 46.3729 27.9103 -5.89897 46.3729 27.9103 -5.89897
373 1 46.9636 26.1021 -4.25479 46.9636 26.1021 -4.25479
374 2 48.611 25.5105 -2.61772 48.611 25.5105 -2.61772
375 2 49.6053 28.9742 -5.46141 49.6053 28.9742 -5.46141
376 1 49.9057 27.2747 -3.72404 49.9057 27.2747 -3.72404
377 2 49.1404 25.8803 -5.60647 49.1404 25.8803 -5.60647
378 2 51.9227 27.1156 -5.16699 51.9227 27.1156 -5.16699
379 1 50.6493 30.4454 -3.62011 -0.761473 30.4454 -3.62011
380 2 52.1319 31.3893 -1.7354 0.721119 31.3893 -1.7354
381 2 1.39489 29.8088 -4.77153 1.39489 29.8088 -4.77153
382 1 2.67666 31.7237 -3.38433 2.67666 31.7237 -3.38433
383 2 4.62107 31.9473 -1.71312 4.62107 31.9473 -1.71312
384 2 2.85086 29.6725 -2.13499 2.85086 29.6725 -2.13499
385 1 6.71706 15.884 5.49281 6.71706 15.884 5.49281
386 2 7.67942 15.9405 7.69308 7.67942 15.9405 7.69308
387 2 8.99153 15.6468 4.76499 8.99153 15.6468 4.76499
388 1 9.42103 17.499 6.53601 9.42103 17.499 6.53601
389 2 10.3576 16.0401 8.26857 10.3576 16.0401 8.26857
390 2 11.448 17.2452 5.15624 11.448 17.2452 5.15624
391 1 12.4377 15.6735 6.84132 12.4377 15.6735 6.84132
392 2 14.8901 16.2019 7.77934 14.8901 16.2019 7.77934
393 2 14.0388 15.4766 4.95341 14.0388 15.4766 4.95341
394 1 15.0962 31.7008 -4.24403 15.0962 31.7008 -4.24403
395 2 17.0575 31.7248 -2.7339 17.0575 31.7248 -2.7339
396 2 16.387 33.1283 -5.79598 16.387 33.1283 -5.79598
397 1 17.8188 15.681 7.16068 17.8188 15.681 7.16068
398 2 19.2173 14.0224 8.30867 19.2173 14.0224 8.30867
399 2 19.8314 16.4115 5.69113 19.8314 16.4115 5.69113
400 1 21.227 31.832 -4.40555 21.227 31.832 -4.40555
401 2 22.8786 32.0127 -2.54039 22.8786 32.0127 -2.54039
402 2 22.883 32.5576 -5.98557 22.883 32.5576 -5.98557
403 1 23.597 15.9982 5.9299 23.597 15.9982 5.9299
404 2 25.5173 15.4106 7.34645 25.5173 15.4106 7.34645
405 2 24.6509 15.1406 3.8547 24.6509 15.1406 3.8547
406 1 27.0191 31.8081 -4.33506 27.0191 31.8081 -4.33506
407 2 31.0839 31.4604 -2.88473 31.0839 31.4604 -2.88473
408 2 29.1703 32.4264 -5.71991 29.1703 32.4264 -5.71991
409 1 30.1185 30.3501 -4.86791 30.1185 30.3501 -4.86791
410 2 33.7896 30.0409 -3.20587 33.7896 30.0409 -3.20587
411 2 31.9239 30.9941 -6.30051 31.9239 30.9941 -6.30051
412 1 33.0098 32.221 -4.29009 33.0098 32.221 -4.29009
413 2 35.0666 32.3247 -2.71618 35.0666 32.3247 -2.71618
414 2 34.9948 32.4939 -5.93746 34.9948 32.4939 -5.93746
415 1 35.9681 30.6313 -4.4744 35.9681 30.6313 -4.4744
416 2 37.9868 30.4271 -2.87313 37.9868 30.4271 -2.87313
417 2 37.7686 30.9823 -6.14217 37.7686 30.9823 -6.14217
418 1 39.008 32.2389 -4.29748 39.008 32.2389 -4.29748
419 2 40.7512 31.7089 -2.53918 40.7512 31.7089 -2.53918
420 2 41.1278 32.2294 -5.67519 41.1278 32.2294 -5.67519
421 1 41.7114 30.226 -4.26227 41.7114 30.226 -4.26227
422 2 43.6915 29.7488 -2.69784 43.6915 29.7488 -2.69784
423 2 43.6047 30.029 -5.85032 43.6047 30.029 -5.85032
424 1 44.7418 31.5084 -4.09566 44.7418 31.5084 -4.09566
425 2 46.6661 30.969 -2.38141 46.6661 30.969 -2.38141
426 2 46.9181 31.3773 -5.67766 46.9181 31.3773 -5.67766
427 1 47.3997 29.3836 -4.19811 47.3997 29.3836 -4.19811
428 2 49.0511 29.0971 -2.22434 49.0511 29.0971 -2.22434
429 2 51.8044 28.4352 -2.56076 51.8044 28.4352 -2.56076
430 1 48.015 32.5888 -3.79827 48.015 32.5888 -3.79827
431 2 49.4873 31.8929 -1.79394 49.4873 31.8929 -1.79394
432 2 50.2029 32.567 -4.94706 50.2029 32.567 -4.94706
433 1 51.2611 33.6517 -2.80057 -0.149719 33.6517 -2.80057
434 2 2.28129 33.5418 -1.58204 2.28129 33.5418 -1.58204
435 2 1.6573 33.6371 -4.68011 1.6573 33.6371 -4.68011
436 1 3.15377 35.1514 -3.26459 3.15377 35.1514 -3.26459
437 2 5.25874 34.9764 -1.74853 5.25874 34.9764 -1.74853
438 2 5.07279 35.2812 -4.94446 5.07279 35.2812 -4.94446
439 1 5.92575 33.3949 -3.46843 5.92575 33.3949 -3.46843
440 2 7.94449 33.3926 -1.85862 7.94449 33.3926 -1.85862
441 2 9.95909 32.3255 -3.78316 9.95909 32.3255 -3.78316
442 1 9.26724 34.8018 -3.6281 9.26724 34.8018 -3.6281
443 2 11.0854 34.8433 -1.87142 11.0854 34.8433 -1.87142
444 2 11.3381 35.0355 -5.06452 11.3381 35.0355 -5.06452
445 1 12.2877 33.3782 -3.43037 12.2877 33.3782 -3.43037
446 2 14.6136 33.2647 -2.4116 14.6136 33.2647 -2.4116
447 2 13.7364 33.3362 -5.46289 13.7364 33.3362 -5.46289
448 1 15.259 34.9842 -4.18373 15.259 34.9842 -4.18373
449 2 17.135 34.5146 -2.29113 17.135 34.5146 -2.29113
450 2 17.4867 35.5148 -5.3757 17.4867 35.5148 -5.3757
451 1 18.205 33.4092 -4.16841 18.205 33.4092 -4.16841
452 2 20.1321 33.0605 -2.46746 20.1321 33.0605 -2.46746
453 2 20.2513 33.8009 -5.56588 20.2513 33.8009 -5.56588
454 1 21.1745 35.0245 -3.6403 21.1745 35.0245 -3.6403
455 2 23.3094 34.8988 -2.24344 23.3094 34.8988 -2.24344
456 2 22.932 35.3172 -5.3806 22.932 35.3172 -5.3806
457 1 24.1245 33.5197 -4.12816 24.1245 33.5197 -4.12816
458 2 26.4457 33.5007 -2.59387 26.4457 33.5007 -2.59387
459 2 26.0646 33.5278 -5.77464 26.0646 33.5278 -5.77464
460 1 27.1577 35.1619 -4.19851 27.1577 35.1619 -4.19851
461 2 28.9302 35.2875 -2.31965 28.9302 35.2875 -2.31965
462 2 29.3009 35.3202 -5.51256 29.3009 35.3202 -5.51256
463 1 30.1224 33.6406 -3.77607 30.1224 33.6406 -3.77607
464 2 32.3685 33.7816 -2.38528 32.3685 33.7816 -2.38528
465 2 31.7523 33.9221 -5.65356 31.7523 33.9221 -5.65356
466 1 32.9923 35.4341 -4.13332 32.9923 35.4341 -4.13332
467 2 35.1218 35.7687 -2.72329 35.1218 35.7687 -2.72329
468 2 34.6118 35.4194 -5.99284 34.6118 35.4194 -5.99284
469 1 36.0587 34.0209 -4.37578 36.0587 34.0209 -4.37578
470 2 38.1789 33.9903 -2.71893 38.1789 33.9903 -2.71893
471 2 38.1822 33.9284 -5.93754 38.1822 33.9284 -5.93754
472 1 39.4293 35.715 -4.45444 39.4293 35.715 -4.45444
473 2 41.2354 35.4632 -2.54824 41.2354 35.4632 -2.54824
474 2 41.3031 35.0385 -5.86732 41.3031 35.0385 -5.86732
475 1 42.1438 33.3956 -3.777 42.1438 33.3956 -3.777
476 2 43.8696 32.7461 -2.09122 43.8696 32.7461 -2.09122
477 2 44.0375 33.9128 -5.20664 44.0375 33.9128 -5.20664
478 1 41.2015 37.7898 -6.6829 41.2015 37.7898 -6.6829
479 2 44.6474 36.7695 -2.47 44.6474 36.7695 -2.47
480 2 43.5777 37.24 -6.48688 43.5777 37.24 -6.48688
481 1 45.3939 34.5311 -3.14101 45.3939 34.5311 -3.14101
482 2 47.4291 34.0934 -1.73879 47.4291 34.0934 -1.73879
483 2 47.0249 34.8064 -4.98127 47.0249 34.8064 -4.98127
484 1 48.6885 35.713 -3.26997 48.6885 35.713 -3.26997
485 2 50.4235 35.6791 -1.46685 50.4235 35.6791 -1.46685
486 2 50.7343 35.4512 -4.67483 50.7343 35.4512 -4.67483
487 1 51.8293 37.0802 -3.16011 0.418555 37.0802 -3.16011
488 2 2.46446 36.8558 -1.58459 2.46446 36.8558 -1.58459
489 2 2.29453 36.9872 -4.91861 2.29453 36.9872 -4.91861
490 1 3.47941 38.4942 -3.23874 3.47941 38.4942 -3.23874
491 2 5.34988 38.3927 -1.50591 5.34988 38.3927 -1.50591
492 2 5.38639 38.498 -4.81824 5.38639 38.498 -4.81824
493 1 6.3073 36.7022 -3.22532 6.3073 36.7022 -3.22532
494 2 8.30758 36.2352 -1.72475 8.30758 36.2352 -1.72475
495 2 8.17346 36.7433 -4.95398 8.17346 36.7433 -4.95398
496 1 9.37975 38.115 -3.05123 9.37975 38.115 -3.05123
497 2 11.2986 37.9997 -1.48792 11.2986 37.9997 -1.48792
498 2 11.2469 38.3312 -4.70016 11.2469 38.3312 -4.70016
499 1 12.2747 36.5533 -3.31666 12.2747 36.5533 -3.31666
500 2 14.5415 36.1701 -2.02808 14.5415 36.1701 -2.02808
501 2 14.0185 37.0396 -5.21658 14.0185 37.0396 -5.21658
502 1 15.3396 38.1999 -3.29873 15.3396 38.1999 -3.29873
503 2 17.0928 37.9156 -1.54414 17.0928 37.9156 -1.54414
504 2 17.3737 38.4629 -4.79058 17.3737 38.4629 -4.79058
505 1 18.2382 36.5629 -3.31284 18.2382 36.5629 -3.31284
506 2 20.1821 36.3819 -1.74171 20.1821 36.3819 -1.74171
507 2 20.2113 36.9638 -4.89429 20.2113 36.9638 -4.89429
508 1 21.2549 38.2796 -3.06613 21.2549 38.2796 -3.06613
509 2 23.3646 38.3098 -1.68695 23.3646 38.3098 -1.68695
510 2 23.1242 38.5348 -5.00221 23.1242 38.5348 -5.00221
511 1 24.1574 36.761 -3.63559 24.1574 36.761 -3.63559
512 2 26.1853 36.5719 -2.18555 26.1853 36.5719 -2.18555
513 2 26.0173 37.0807 -5.40541 26.0173 37.0807 -5.40541
514 1 26.9508 38.4609 -3.59687 26.9508 38.4609 -3.59687
515 2 28.892 38.3638 -2.05732 28.892 38.3638 -2.05732
516 2 28.8461 38.6423 -5.26274 28.8461 38.6423 -5.26274
517 1 29.9201 36.9375 -3.83945 29.9201 36.9375 -3.83945
518 2 32.1102 36.9743 -2.3432 32.1102 36.9743 -2.3432
519 2 31.8286 37.1407 -5.67643 31.8286 37.1407 -5.67643
520 1 32.715 38.693 -3.97597 32.715 38.693 -3.97597
521 2 34.9924 38.6021 -2.70271 34.9924 38.6021 -2.70271
522 2 34.2482 39.0788 -5.9194 34.2482 39.0788 -5.9194
523 1 35.7795 37.2369 -4.68116 35.7795 37.2369 -4.68116
524 2 37.8731 37.6078 -3.19798 37.8731 37.6078 -3.19798
525 2 36.5644 38.0369 -6.82398 36.5644 38.0369 -6.82398
526 1 38.4227 38.9262 -5.2422 38.4227 38.9262 -5.2422
527 2 40.9775 38.1053 -4.32117 40.9775 38.1053 -4.32117
528 2 38.9424 36.7898 -6.71161 38.9424 36.7898 -6.71161
529 1 42.8969 36.2725 -4.26876 42.8969 36.2725 -4.26876
530 2 39.5458 40.0814 -3.18 39.5458 40.0814 -3.18
531 2 39.9011 39.9081 -7.14041 39.9011 39.9081 -7.14041
532 1 43.5821 39.2044 -5.04708 43.5821 39.2044 -5.04708
533 2 45.1986 39.4372 -3.08908 45.1986 39.4372 -3.08908
534 2 45.7184 39.1736 -6.30529 45.7184 39.1736 -6.30529
535 1 46.1621 37.4798 -4.40745 46.1621 37.4798 -4.40745
536 2 47.5078 37.6087 -2.23105 47.5078 37.6087 -2.23105
537 2 48.4855 37.1602 -5.32746 48.4855 37.1602 -5.32746
538 1 49.184 38.9192 -3.65952 49.184 38.9192 -3.65952
539 2 50.9758 39.0064 -1.85432 50.9758 39.0064 -1.85432
540 2 51.2234 38.6558 -5.03792 51.2234 38.6558 -5.03792
541 1 52.1533 40.3933 -3.51706 0.742535 40.3933 -3.51706
542 2 2.51484 39.9945 -1.6273 2.51484 39.9945 -1.6273
543 2 2.81584 40.2912 -4.95665 2.81584 40.2912 -4.95665