ITEM: TIMESTEP
925000
ITEM: NUMBER OF ATOMS
810
ITEM: BOX BOUNDS pp pp pp
8.0341777045796159e-01 5.2214187229542503e+01
-1.4791415865349111e+00 5.2495356586533781e+01
-1.0000000000000000e+01 1.0000000000000000e+01
ITEM: ATOMS id type x y z xu yu zu
1 1 0.906889 -1.19834 -0.581565 0.906889 -1.19834 -0.581565
2 2 2.7213 -1.37845 1.11 2.7213 -1.37845 1.11
3 2 2.99344 -1.04767 -1.96992 2.99344 -1.04767 -1.96992
4 1 3.78594 0.523041 -0.0603947 3.78594 0.523041 -0.0603947
5 2 5.67169 0.534029 1.66374 5.67169 0.534029 1.66374
6 2 5.77604 0.614135 -1.63553 5.77604 0.614135 -1.63553
7 1 6.60251 -1.28184 -0.0687393 6.60251 -1.28184 -0.0687393
8 2 8.56773 -1.4544 1.45762 8.56773 -1.4544 1.45762
9 2 8.59097 -1.01753 -1.83586 8.59097 -1.01753 -1.83586
10 1 9.53286 0.531194 -0.0305577 9.53286 0.531194 -0.0305577
11 2 11.572 0.323579 1.47402 11.572 0.323579 1.47402
12 2 11.4135 0.738742 -1.73801 11.4135 0.738742 -1.73801
13 1 12.4581 -1.15128 -0.355012 12.4581 -1.15128 -0.355012
14 2 14.269 -1.18884 1.40643 14.269 -1.18884 1.40643
15 2 14.5561 -1.32622 -1.76709 14.5561 -1.32622 -1.76709
16 1 15.3266 0.46244 -0.144368 15.3266 0.46244 -0.144368
17 2 17.2571 0.545129 1.49753 17.2571 0.545129 1.49753
18 2 17.2778 0.473573 -1.75996 17.2778 0.473573 -1.75996
19 1 18.2176 -1.26661 -0.074529 18.2176 -1.26661 -0.074529
20 2 20.1825 -1.16681 1.58617 20.1825 -1.16681 1.58617
21 2 20.1532 -1.21468 -1.67403 20.1532 -1.21468 -1.67403
22 1 21.0726 0.63948 -0.0390518 21.0726 0.63948 -0.0390518
23 2 22.8906 0.394259 1.62254 22.8906 0.394259 1.62254
24 2 22.9997 0.794133 -1.59162 22.9997 0.794133 -1.59162
25 1 23.868 -1.28528 -0.105408 23.868 -1.28528 -0.105408
26 2 25.6645 -1.29542 1.559 25.6645 -1.29542 1.559
27 2 26.0183 -1.18199 -1.63068 26.0183 -1.18199 -1.63068
28 1 26.7112 0.612436 0.0135686 26.7112 0.612436 0.0135686
29 2 28.6651 0.411974 1.58165 28.6651 0.411974 1.58165
30 2 28.6096 0.776104 -1.61189 28.6096 0.776104 -1.61189
31 1 29.558 -1.17536 -0.0944349 29.558 -1.17536 -0.0944349
32 2 31.2836 -1.2464 1.53937 31.2836 -1.2464 1.53937
33 2 31.5148 -1.12552 -1.62157 31.5148 -1.12552 -1.62157
34 1 32.4066 0.618926 0.101172 32.4066 0.618926 0.101172
35 2 34.5368 0.45535 1.34776 34.5368 0.45535 1.34776
36 2 34.0811 0.73311 -1.7653 34.0811 0.73311 -1.7653
37 1 35.2686 -1.22871 -0.408133 35.2686 -1.22871 -0.408133
38 2 37.1162 -1.34548 1.20645 37.1162 -1.34548 1.20645
39 2 37.2393 -1.17114 -2.04096 37.2393 -1.17114 -2.04096
40 1 38.1246 0.601603 -0.416165 38.1246 0.601603 -0.416165
41 2 40.2927 0.756406 1.06416 40.2927 0.756406 1.06416
42 2 39.9642 0.483325 -2.17035 39.9642 0.483325 -2.17035
43 1 41.0672 -1.24062 -0.481663 41.0672 -1.24062 -0.481663
44 2 43.0584 -1.26205 1.07469 43.0584 -1.26205 1.07469
45 2 42.9655 -1.13414 -2.1643 42.9655 -1.13414 -2.1643
46 1 43.8852 0.589967 -0.440939 43.8852 0.589967 -0.440939
47 2 45.8448 0.360135 1.0428 45.8448 0.360135 1.0428
48 2 45.617 0.650871 -2.14393 45.617 0.650871 -2.14393
49 1 46.7116 -1.19643 -0.776335 46.7116 -1.19643 -0.776335
50 2 48.4722 -1.18028 0.992031 48.4722 -1.18028 0.992031
51 2 48.8137 -1.14386 -2.25143 48.8137 -1.14386 -2.25143
52 1 49.521 0.61447 -0.567348 49.521 0.61447 -0.567348
53 2 51.5002 0.528666 1.13968 51.5002 0.528666 1.13968
54 2 51.5032 0.774833 -2.14035 51.5032 0.774833 -2.14035
55 1 1.00565 2.47437 -0.327221 1.00565 2.47437 -0.327221
56 2 2.75082 2.31349 1.48365 2.75082 2.31349 1.48365
57 2 3.10386 2.45058 -1.68593 3.10386 2.45058 -1.68593
58 1 3.87054 4.09648 0.0153136 3.87054 4.09648 0.0153136
59 2 5.72234 4.15679 1.68774 5.72234 4.15679 1.68774
60 2 5.8543 4.11635 -1.60722 5.8543 4.11635 -1.60722
61 1 6.77177 2.33123 0.0702151 6.77177 2.33123 0.0702151
62 2 8.77354 2.3041 1.74555 8.77354 2.3041 1.74555
63 2 8.69748 2.47485 -1.53373 8.69748 2.47485 -1.53373
64 1 9.62618 4.24261 0.167033 9.62618 4.24261 0.167033
65 2 11.6767 4.25481 1.64259 11.6767 4.25481 1.64259
66 2 11.3815 4.07975 -1.62067 11.3815 4.07975 -1.62067
67 1 12.3871 2.31652 -0.0265108 12.3871 2.31652 -0.0265108
68 2 14.4902 2.38009 1.43238 14.4902 2.38009 1.43238
69 2 14.171 2.25439 -1.75952 14.171 2.25439 -1.75952
70 1 15.3695 4.13762 -0.297513 15.3695 4.13762 -0.297513
71 2 17.1976 4.25536 1.42739 17.1976 4.25536 1.42739
72 2 17.4066 4.21612 -1.79081 17.4066 4.21612 -1.79081
73 1 18.1872 2.34651 -0.153474 18.1872 2.34651 -0.153474
74 2 20.1042 2.4087 1.55644 20.1042 2.4087 1.55644
75 2 20.1329 2.41149 -1.72379 20.1329 2.41149 -1.72379
76 1 20.9269 4.1409 -0.086372 20.9269 4.1409 -0.086372
77 2 22.7567 4.22658 1.67475 22.7567 4.22658 1.67475
78 2 22.9858 4.0922 -1.56051 22.9858 4.0922 -1.56051
79 1 23.9856 2.47981 0.241225 23.9856 2.47981 0.241225
80 2 25.9448 2.44348 1.83397 25.9448 2.44348 1.83397
81 2 25.8265 2.49436 -1.45167 25.8265 2.49436 -1.45167
82 1 26.8006 4.21823 0.147572 26.8006 4.21823 0.147572
83 2 28.6891 4.24712 1.77521 28.6891 4.24712 1.77521
84 2 28.6819 4.30019 -1.52919 28.6819 4.30019 -1.52919
85 1 29.6572 2.49068 0.0615519 29.6572 2.49068 0.0615519
86 2 31.5916 2.60321 1.68239 31.5916 2.60321 1.68239
87 2 31.502 2.27247 -1.5482 31.502 2.27247 -1.5482
88 1 32.4892 4.27323 -0.199577 32.4892 4.27323 -0.199577
89 2 34.45 4.171 1.34039 34.45 4.171 1.34039
90 2 34.3951 4.48498 -1.8902 34.3951 4.48498 -1.8902
91 1 35.2556 2.47382 -0.321765 35.2556 2.47382 -0.321765
92 2 37.3711 2.49788 1.11112 37.3711 2.49788 1.11112
93 2 37.1505 2.24749 -2.0571 37.1505 2.24749 -2.0571
94 1 38.0566 4.16999 -0.636963 38.0566 4.16999 -0.636963
95 2 40.1001 4.15421 0.882403 40.1001 4.15421 0.882403
96 2 39.8892 4.297 -2.22773 39.8892 4.297 -2.22773
97 1 40.9327 2.4155 -0.722265 40.9327 2.4155 -0.722265
98 2 42.7924 2.36982 1.11167 42.7924 2.36982 1.11167
99 2 43.085 2.37119 -2.09534 43.085 2.37119 -2.09534
100 1 43.8064 4.12884 -0.345921 43.8064 4.12884 -0.345921
101 2 45.8501 4.23248 1.19389 45.8501 4.23248 1.19389
102 2 45.6239 4.06894 -2.01164 45.6239 4.06894 -2.01164
103 1 46.7356 2.39062 -0.369973 46.7356 2.39062 -0.369973
104 2 48.7581 2.36749 1.18102 48.7581 2.36749 1.18102
105 2 48.5888 2.4585 -2.09434 48.5888 2.4585 -2.09434
106 1 49.509 4.21259 -0.395962 49.509 4.21259 -0.395962
107 2 51.445 4.29443 1.3245 51.445 4.29443 1.3245
108 2 51.5777 4.23678 -1.93265 51.5777 4.23678 -1.93265
109 1 0.990913 5.92752 -0.208393 0.990913 5.92752 -0.208393
110 2 2.69804 5.92305 1.49287 2.69804 5.92305 1.49287
111 2 3.06869 5.8779 -1.6137 3.06869 5.8779 -1.6137
112 1 3.90171 7.7369 0.0718565 3.90171 7.7369 0.0718565
113 2 5.8849 7.70113 1.72817 5.8849 7.70113 1.72817
114 2 5.76914 7.68423 -1.52809 5.76914 7.68423 -1.52809
115 1 6.7099 5.97062 0.0595484 6.7099 5.97062 0.0595484
116 2 8.58965 6.0123 1.6456 8.58965 6.0123 1.6456
117 2 8.64054 5.89452 -1.58745 8.64054 5.89452 -1.58745
118 1 9.54038 7.74287 0.0860404 9.54038 7.74287 0.0860404
119 2 11.6138 7.54017 1.76177 11.6138 7.54017 1.76177
120 2 11.5366 7.85021 -1.39381 11.5366 7.85021 -1.39381
121 1 12.4919 5.91173 -0.017525 12.4919 5.91173 -0.017525
122 2 14.4894 5.83253 1.49211 14.4894 5.83253 1.49211
123 2 14.3731 6.1565 -1.68345 14.3731 6.1565 -1.68345
124 1 15.343 7.76396 0.136991 15.343 7.76396 0.136991
125 2 17.568 7.84825 1.54902 17.568 7.84825 1.54902
126 2 17.1793 7.75524 -1.63315 17.1793 7.75524 -1.63315
127 1 18.2026 5.98678 -0.140535 18.2026 5.98678 -0.140535
128 2 20.0509 5.98337 1.58967 20.0509 5.98337 1.58967
129 2 20.1311 5.88297 -1.70075 20.1311 5.88297 -1.70075
130 1 21.0181 7.74189 -0.0315069 21.0181 7.74189 -0.0315069
131 2 22.8094 7.62135 1.67071 22.8094 7.62135 1.67071
132 2 23.0631 7.82523 -1.49791 23.0631 7.82523 -1.49791
133 1 23.8089 5.98435 0.0438218 23.8089 5.98435 0.0438218
134 2 25.6546 5.98324 1.69906 25.6546 5.98324 1.69906
135 2 25.8377 5.92867 -1.50676 25.8377 5.92867 -1.50676
136 1 26.7459 7.68662 0.17396 26.7459 7.68662 0.17396
137 2 28.6532 7.6717 1.7093 28.6532 7.6717 1.7093
138 2 28.5823 8.00899 -1.49709 28.5823 8.00899 -1.49709
139 1 29.6167 6.00854 0.000288909 29.6167 6.00854 0.000288909
140 2 31.5233 5.82626 1.58268 31.5233 5.82626 1.58268
141 2 31.3277 6.17259 -1.72671 31.3277 6.17259 -1.72671
142 1 32.392 7.81101 -0.0764054 32.392 7.81101 -0.0764054
143 2 34.337 7.8448 1.45721 34.337 7.8448 1.45721
144 2 34.1734 7.71741 -1.73042 34.1734 7.71741 -1.73042
145 1 35.3308 6.0409 -0.204456 35.3308 6.0409 -0.204456
146 2 37.3744 5.87998 1.24662 37.3744 5.87998 1.24662
147 2 37.0661 6.09974 -2.01808 37.0661 6.09974 -2.01808
148 1 38.0905 7.80997 -0.249427 38.0905 7.80997 -0.249427
149 2 40.1507 7.62603 1.27798 40.1507 7.62603 1.27798
150 2 39.8397 8.12465 -1.94918 39.8397 8.12465 -1.94918
151 1 40.9117 6.10778 -0.635699 40.9117 6.10778 -0.635699
152 2 42.8531 6.19926 0.943608 42.8531 6.19926 0.943608
153 2 42.9293 5.93855 -2.17803 42.9293 5.93855 -2.17803
154 1 43.8885 7.87637 -0.617438 43.8885 7.87637 -0.617438
155 2 45.7033 7.79371 1.06243 45.7033 7.79371 1.06243
156 2 45.8257 7.94351 -2.27967 45.8257 7.94351 -2.27967
157 1 46.5804 5.89729 -0.595251 46.5804 5.89729 -0.595251
158 2 48.3931 5.80417 1.14532 48.3931 5.80417 1.14532
159 2 48.7276 5.88289 -2.08635 48.7276 5.88289 -2.08635
160 1 49.4991 7.7142 -0.377667 49.4991 7.7142 -0.377667
161 2 51.3906 7.6475 1.44872 51.3906 7.6475 1.44872
162 2 51.5569 7.68518 -1.79963 51.5569 7.68518 -1.79963
163 1 0.987348 9.52153 0.0399906 0.987348 9.52153 0.0399906
164 2 2.78523 9.3828 1.83561 2.78523 9.3828 1.83561
165 2 3.01964 9.58561 -1.40795 3.01964 9.58561 -1.40795
166 1 3.81411 11.2931 0.430571 3.81411 11.2931 0.430571
167 2 5.74121 11.0805 1.97792 5.74121 11.0805 1.97792
168 2 5.65228 11.4799 -1.21764 5.65228 11.4799 -1.21764
169 1 6.66376 9.46075 0.126537 6.66376 9.46075 0.126537
170 2 8.67331 9.42169 1.82562 8.67331 9.42169 1.82562
171 2 8.77309 9.59361 -1.452 8.77309 9.59361 -1.452
172 1 9.53398 11.3714 0.3487 9.53398 11.3714 0.3487
173 2 11.4932 11.4532 1.8859 11.4932 11.4532 1.8859
174 2 11.3736 11.1948 -1.33529 11.3736 11.1948 -1.33529
175 1 12.513 9.56231 0.378466 12.513 9.56231 0.378466
176 2 14.5783 9.67066 1.90473 14.5783 9.67066 1.90473
177 2 14.2809 9.52524 -1.42708 14.2809 9.52524 -1.42708
178 1 15.3518 11.2822 0.15448 15.3518 11.2822 0.15448
179 2 17.406 11.1267 1.5876 17.406 11.1267 1.5876
180 2 17.0653 11.3682 -1.60307 17.0653 11.3682 -1.60307
181 1 18.2454 9.53007 -0.144167 18.2454 9.53007 -0.144167
182 2 20.0545 9.61193 1.58728 20.0545 9.61193 1.58728
183 2 20.1703 9.41182 -1.67624 20.1703 9.41182 -1.67624
184 1 21.0078 11.3664 0.0183951 21.0078 11.3664 0.0183951
185 2 22.7964 11.3606 1.70041 22.7964 11.3606 1.70041
186 2 23.0949 11.4315 -1.51187 23.0949 11.4315 -1.51187
187 1 23.9151 9.54889 0.189175 23.9151 9.54889 0.189175
188 2 25.8157 9.63041 1.86677 25.8157 9.63041 1.86677
189 2 25.8237 9.49421 -1.38261 25.8237 9.49421 -1.38261
190 1 26.6905 11.3203 0.168302 26.6905 11.3203 0.168302
191 2 28.7299 11.5142 1.6682 28.7299 11.5142 1.6682
192 2 28.5857 11.2815 -1.51001 28.5857 11.2815 -1.51001
193 1 29.5947 9.62548 0.126159 29.5947 9.62548 0.126159
194 2 31.6071 9.5827 1.64324 31.6071 9.5827 1.64324
195 2 31.3053 9.58511 -1.63641 31.3053 9.58511 -1.63641
196 1 32.3642 11.3701 -0.0345293 32.3642 11.3701 -0.0345293
197 2 34.2218 11.3917 1.59923 34.2218 11.3917 1.59923
198 2 34.2463 11.2926 -1.74713 34.2463 11.2926 -1.74713
199 1 35.2432 9.64236 -0.0548982 35.2432 9.64236 -0.0548982
200 2 37.2252 9.75708 1.38571 37.2252 9.75708 1.38571
201 2 37.1035 9.6821 -1.81806 37.1035 9.6821 -1.81806
202 1 38.1665 11.4633 -0.324211 38.1665 11.4633 -0.324211
203 2 40.1961 11.5832 1.2809 40.1961 11.5832 1.2809
204 2 39.9703 11.328 -2.00647 39.9703 11.328 -2.00647
205 1 40.8859 9.62404 -0.214952 40.8859 9.62404 -0.214952
206 2 43.1017 9.43737 1.29436 43.1017 9.43737 1.29436
207 2 42.7344 9.66516 -2.06234 42.7344 9.66516 -2.06234
208 1 43.7993 11.3204 -0.411683 43.7993 11.3204 -0.411683
209 2 45.8388 11.3131 1.13139 45.8388 11.3131 1.13139
210 2 45.6379 11.455 -2.08971 45.6379 11.455 -2.08971
211 1 46.8521 9.6123 -0.624033 46.8521 9.6123 -0.624033
212 2 48.5087 9.43992 1.20498 48.5087 9.43992 1.20498
213 2 48.8528 9.6909 -1.96328 48.8528 9.6909 -1.96328
214 1 49.5679 11.323 -0.217907 49.5679 11.323 -0.217907
215 2 51.2143 11.2631 1.64628 51.2143 11.2631 1.64628
216 2 51.6721 11.5397 -1.59557 51.6721 11.5397 -1.59557
217 1 0.964857 13.1183 0.34286 0.964857 13.1183 0.34286
218 2 2.92648 13.16 2.02981 2.92648 13.16 2.02981
219 2 2.86058 13.01 -1.31757 2.86058 13.01 -1.31757
220 1 3.79565 14.905 0.277463 3.79565 14.905 0.277463
221 2 5.55866 15.0583 2.17644 5.55866 15.0583 2.17644
222 2 5.83123 14.8069 -1.17242 5.83123 14.8069 -1.17242
223 1 6.63355 13.0792 0.543292 6.63355 13.0792 0.543292
224 2 8.71691 13.1541 2.05649 8.71691 13.1541 2.05649
225 2 8.38155 13.0119 -1.20218 8.38155 13.0119 -1.20218
226 1 9.41726 14.8219 0.322556 9.41726 14.8219 0.322556
227 2 11.4527 14.9377 1.78385 11.4527 14.9377 1.78385
228 2 11.2557 14.8564 -1.49154 11.2557 14.8564 -1.49154
229 1 12.4169 13.1216 0.137799 12.4169 13.1216 0.137799
230 2 14.2466 13.0132 1.85221 14.2466 13.0132 1.85221
231 2 14.3424 13.1978 -1.42694 14.3424 13.1978 -1.42694
232 1 15.1723 14.9428 0.236838 15.1723 14.9428 0.236838
233 2 17.2195 14.8643 1.69852 17.2195 14.8643 1.69852
234 2 17.1433 14.9603 -1.55734 17.1433 14.9603 -1.55734
235 1 18.2061 13.163 -0.0359152 18.2061 13.163 -0.0359152
236 2 20.1074 13.2201 1.60559 20.1074 13.2201 1.60559
237 2 20.1288 13.1426 -1.58393 20.1288 13.1426 -1.58393
238 1 20.9556 14.9671 -0.0707365 20.9556 14.9671 -0.0707365
239 2 22.7144 15.0643 1.67888 22.7144 15.0643 1.67888
240 2 23.069 14.7679 -1.53549 23.069 14.7679 -1.53549
241 1 23.847 13.199 0.263028 23.847 13.199 0.263028
242 2 25.8511 13.1326 1.76871 25.8511 13.1326 1.76871
243 2 25.6744 13.0117 -1.47977 25.6744 13.0117 -1.47977
244 1 26.677 14.8578 -0.0206939 26.677 14.8578 -0.0206939
245 2 28.5357 14.8776 1.53057 28.5357 14.8776 1.53057
246 2 28.4697 14.9071 -1.70731 28.4697 14.9071 -1.70731
247 1 29.5616 13.2105 -0.100695 29.5616 13.2105 -0.100695
248 2 31.4291 13.1488 1.52686 31.4291 13.1488 1.52686
249 2 31.5103 13.1971 -1.68539 31.5103 13.1971 -1.68539
250 1 32.4375 14.9475 -0.0909561 32.4375 14.9475 -0.0909561
251 2 34.4112 14.9387 1.55484 34.4112 14.9387 1.55484
252 2 34.3087 14.9711 -1.73002 34.3087 14.9711 -1.73002
253 1 35.1931 13.0933 -0.0982684 35.1931 13.0933 -0.0982684
254 2 37.3989 13.1388 1.32448 37.3989 13.1388 1.32448
255 2 37.0128 13.0702 -1.81956 37.0128 13.0702 -1.81956
256 1 38.1373 14.8326 -0.394302 38.1373 14.8326 -0.394302
257 2 40.3293 14.9764 1.13105 40.3293 14.9764 1.13105
258 2 39.9086 14.731 -2.14222 39.9086 14.731 -2.14222
259 1 41.092 13.1069 -0.487698 41.092 13.1069 -0.487698
260 2 42.8462 13.0552 1.18267 42.8462 13.0552 1.18267
261 2 43.0099 13.1546 -2.03939 43.0099 13.1546 -2.03939
262 1 43.9073 14.986 -0.395547 43.9073 14.986 -0.395547
263 2 45.7872 14.8882 1.33102 45.7872 14.8882 1.33102
264 2 45.9337 15.2433 -1.87769 45.9337 15.2433 -1.87769
265 1 46.7712 13.2482 -0.441779 46.7712 13.2482 -0.441779
266 2 48.4628 13.0402 1.4275 48.4628 13.0402 1.4275
267 2 48.8405 13.3059 -1.84519 48.8405 13.3059 -1.84519
268 1 49.5017 14.942 0.0728446 49.5017 14.942 0.0728446
269 2 51.2434 14.963 1.80634 51.2434 14.963 1.80634
270 2 51.5835 14.7572 -1.30418 51.5835 14.7572 -1.30418
271 1 0.932224 16.696 0.212053 0.932224 16.696 0.212053
272 2 2.82345 16.5537 1.96002 2.82345 16.5537 1.96002
273 2 3.01324 16.7675 -1.29598 3.01324 16.7675 -1.29598
274 1 3.91662 18.5213 0.518839 3.91662 18.5213 0.518839
275 2 5.87562 18.6222 2.12948 5.87562 18.6222 2.12948
276 2 5.80734 18.5142 -1.07515 5.80734 18.5142 -1.07515
277 1 6.6753 16.7154 0.555599 6.6753 16.7154 0.555599
278 2 8.73706 16.5958 2.07437 8.73706 16.5958 2.07437
279 2 8.42818 16.6655 -1.29213 8.42818 16.6655 -1.29213
280 1 9.49308 18.5134 0.242204 9.49308 18.5134 0.242204
281 2 11.4507 18.4218 1.78601 11.4507 18.4218 1.78601
282 2 11.4289 18.5565 -1.43045 11.4289 18.5565 -1.43045
283 1 12.2743 16.6782 0.0871376 12.2743 16.6782 0.0871376
284 2 14.1842 16.7225 1.83669 14.1842 16.7225 1.83669
285 2 14.2162 16.6232 -1.41608 14.2162 16.6232 -1.41608
286 1 15.2502 18.5241 0.186397 15.2502 18.5241 0.186397
287 2 17.167 18.4584 1.76931 17.167 18.4584 1.76931
288 2 17.0841 18.6106 -1.43927 17.0841 18.6106 -1.43927
289 1 18.09 16.7302 0.116745 18.09 16.7302 0.116745
290 2 20.156 16.6892 1.62833 20.156 16.6892 1.62833
291 2 19.8279 16.7469 -1.60778 19.8279 16.7469 -1.60778
292 1 20.9893 18.4857 0.0352562 20.9893 18.4857 0.0352562
293 2 22.9269 18.5013 1.71694 22.9269 18.5013 1.71694
294 2 22.9612 18.5365 -1.47422 22.9612 18.5365 -1.47422
295 1 23.838 16.6976 0.0780588 23.838 16.6976 0.0780588
296 2 25.7743 16.5542 1.66744 25.7743 16.5542 1.66744
297 2 25.6733 16.7211 -1.60295 25.6733 16.7211 -1.60295
298 1 26.7419 18.419 0.0639878 26.7419 18.419 0.0639878
299 2 28.6462 18.2702 1.59623 28.6462 18.2702 1.59623
300 2 28.4646 18.4794 -1.67309 28.4646 18.4794 -1.67309
301 1 29.4607 16.7442 -0.124458 29.4607 16.7442 -0.124458
302 2 31.3364 16.67 1.50606 31.3364 16.67 1.50606
303 2 31.465 16.9333 -1.65267 31.465 16.9333 -1.65267
304 1 32.4341 18.4983 0.0600461 32.4341 18.4983 0.0600461
305 2 34.4799 18.5839 1.47281 34.4799 18.5839 1.47281
306 2 34.2584 18.4434 -1.63614 34.2584 18.4434 -1.63614
307 1 35.2951 16.7306 -0.134869 35.2951 16.7306 -0.134869
308 2 37.3537 16.8487 1.25868 37.3537 16.8487 1.25868
309 2 37.0673 16.6966 -1.93311 37.0673 16.6966 -1.93311
310 1 38.1537 18.5451 -0.511412 38.1537 18.5451 -0.511412
311 2 40.0404 18.4798 1.02466 40.0404 18.4798 1.02466
312 2 40.1167 18.5603 -2.15261 40.1167 18.5603 -2.15261
313 1 41.01 16.6764 -0.646467 41.01 16.6764 -0.646467
314 2 42.8384 16.6748 1.08767 42.8384 16.6748 1.08767
315 2 43.1344 16.6463 -2.16782 43.1344 16.6463 -2.16782
316 1 43.8648 18.5441 -0.508289 43.8648 18.5441 -0.508289
317 2 45.4946 18.5441 1.36746 45.4946 18.5441 1.36746
318 2 46.0509 18.5558 -1.76829 46.0509 18.5558 -1.76829
319 1 46.7182 16.756 -0.0465299 46.7182 16.756 -0.0465299
320 2 48.6531 16.8532 1.59147 48.6531 16.8532 1.59147
321 2 48.7374 16.7274 -1.67587 48.7374 16.7274 -1.67587
322 1 49.518 18.5481 -0.171924 49.518 18.5481 -0.171924
323 2 51.3464 18.4722 1.72587 51.3464 18.4722 1.72587
324 2 51.6631 18.4492 -1.50504 51.6631 18.4492 -1.50504
325 1 1.05629 20.2894 0.0966322 1.05629 20.2894 0.0966322
326 2 2.83795 20.4441 1.80025 2.83795 20.4441 1.80025
327 2 3.12561 20.0744 -1.35328 3.12561 20.0744 -1.35328
328 1 3.92573 22.1367 0.132579 3.92573 22.1367 0.132579
329 2 5.71209 22.3642 1.87599 5.71209 22.3642 1.87599
330 2 5.91263 21.9717 -1.37949 5.91263 21.9717 -1.37949
331 1 6.74928 20.3858 0.391391 6.74928 20.3858 0.391391
332 2 8.7756 20.5026 1.85007 8.7756 20.5026 1.85007
333 2 8.50894 20.263 -1.37931 8.50894 20.263 -1.37931
334 1 9.50363 22.1156 0.0629916 9.50363 22.1156 0.0629916
335 2 11.5967 22.245 1.57536 11.5967 22.245 1.57536
336 2 11.3904 21.9444 -1.60866 11.3904 21.9444 -1.60866
337 1 12.3778 20.3174 0.255196 12.3778 20.3174 0.255196
338 2 14.331 20.3332 1.81507 14.331 20.3332 1.81507
339 2 14.3593 20.3392 -1.33216 14.3593 20.3392 -1.33216
340 1 15.3534 22.136 0.298907 15.3534 22.136 0.298907
341 2 17.4406 22.3416 1.79856 17.4406 22.3416 1.79856
342 2 17.1285 22.0582 -1.42497 17.1285 22.0582 -1.42497
343 1 18.1421 20.4119 0.280512 18.1421 20.4119 0.280512
344 2 20.2469 20.2364 1.75745 20.2469 20.2364 1.75745
345 2 20.0156 20.4732 -1.50336 20.0156 20.4732 -1.50336
346 1 21.0211 22.0853 0.237488 21.0211 22.0853 0.237488
347 2 23.1059 22.1021 1.72384 23.1059 22.1021 1.72384
348 2 22.7192 22.0051 -1.48916 22.7192 22.0051 -1.48916
349 1 23.876 20.2751 0.0951139 23.876 20.2751 0.0951139
350 2 25.7254 20.0779 1.74721 25.7254 20.0779 1.74721
351 2 25.9105 20.3039 -1.49604 25.9105 20.3039 -1.49604
352 1 26.6381 22.0413 0.237851 26.6381 22.0413 0.237851
353 2 28.7279 22.0601 1.69181 28.7279 22.0601 1.69181
354 2 28.4936 22.0929 -1.52285 28.4936 22.0929 -1.52285
355 1 29.491 20.2501 0.0231485 29.491 20.2501 0.0231485
356 2 31.4883 20.4108 1.61038 31.4883 20.4108 1.61038
357 2 31.3989 20.2806 -1.59341 31.3989 20.2806 -1.59341
358 1 32.3442 22.1336 -0.0758803 32.3442 22.1336 -0.0758803
359 2 34.2856 22.1163 1.48025 34.2856 22.1163 1.48025
360 2 34.2692 22.1708 -1.75663 34.2692 22.1708 -1.75663
361 1 35.2607 20.3368 -0.178165 35.2607 20.3368 -0.178165
362 2 37.3523 20.248 1.28459 37.3523 20.248 1.28459
363 2 36.9379 20.4301 -1.92967 36.9379 20.4301 -1.92967
364 1 38.098 22.0991 -0.384321 38.098 22.0991 -0.384321
365 2 40.2124 22.2344 1.14041 40.2124 22.2344 1.14041
366 2 40.0011 22.0007 -2.11265 40.0011 22.0007 -2.11265
367 1 40.9776 20.3249 -0.504472 40.9776 20.3249 -0.504472
368 2 42.8477 20.279 1.07318 42.8477 20.279 1.07318
369 2 43.0089 20.2482 -2.11036 43.0089 20.2482 -2.11036
370 1 43.8364 22.1084 -0.434466 43.8364 22.1084 -0.434466
371 2 45.4563 22.2265 1.39406 45.4563 22.2265 1.39406
372 2 45.9265 21.9581 -1.78325 45.9265 21.9581 -1.78325
373 1 46.7092 20.3376 0.0493783 46.7092 20.3376 0.0493783
374 2 48.6203 20.3345 1.58261 48.6203 20.3345 1.58261
375 2 48.5179 20.5443 -1.6234 48.5179 20.5443 -1.6234
376 1 49.6211 22.1033 0.0791371 49.6211 22.1033 0.0791371
377 2 51.5933 22.0408 1.71954 51.5933 22.0408 1.71954
378 2 51.4891 22.1386 -1.57825 51.4891 22.1386 -1.57825
379 1 0.986271 23.9298 0.150298 0.986271 23.9298 0.150298
380 2 2.93774 23.8334 1.88156 2.93774 23.8334 1.88156
381 2 2.84201 24.0391 -1.35554 2.84201 24.0391 -1.35554
382 1 3.77993 25.7333 0.429887 3.77993 25.7333 0.429887
383 2 5.88235 25.7571 1.91246 5.88235 25.7571 1.91246
384 2 5.70009 25.8025 -1.37386 5.70009 25.8025 -1.37386
385 1 6.66662 23.935 0.231988 6.66662 23.935 0.231988
386 2 8.62891 23.7714 1.80731 8.62891 23.7714 1.80731
387 2 8.54198 24.0401 -1.36481 8.54198 24.0401 -1.36481
388 1 9.63979 25.6431 0.256571 9.63979 25.6431 0.256571
389 2 11.8783 25.7133 1.50178 11.8783 25.7133 1.50178
390 2 11.3068 25.6264 -1.61909 11.3068 25.6264 -1.61909
391 1 12.4402 23.8728 -0.20927 12.4402 23.8728 -0.20927
392 2 14.2818 24.0369 1.58531 14.2818 24.0369 1.58531
393 2 14.5498 23.8405 -1.62305 14.5498 23.8405 -1.62305
394 1 15.32 25.6874 -0.0398567 15.32 25.6874 -0.0398567
395 2 17.2415 25.6534 1.57048 17.2415 25.6534 1.57048
396 2 17.3087 25.6838 -1.59345 17.3087 25.6838 -1.59345
397 1 18.2454 23.8763 0.00356456 18.2454 23.8763 0.00356456
398 2 20.2267 24.0281 1.69211 20.2267 24.0281 1.69211
399 2 20.1383 23.6753 -1.59138 20.1383 23.6753 -1.59138
400 1 21.1252 25.6861 -0.157282 21.1252 25.6861 -0.157282
401 2 23.0096 25.7528 1.59868 23.0096 25.7528 1.59868
402 2 23.0542 25.7017 -1.57335 23.0542 25.7017 -1.57335
403 1 23.8724 23.879 -0.0400116 23.8724 23.879 -0.0400116
404 2 25.7507 23.9302 1.74825 25.7507 23.9302 1.74825
405 2 25.777 23.7057 -1.54966 25.777 23.7057 -1.54966
406 1 26.6192 25.709 0.078165 26.6192 25.709 0.078165
407 2 28.4616 25.547 1.70871 28.4616 25.547 1.70871
408 2 28.733 25.7744 -1.52567 28.733 25.7744 -1.52567
409 1 29.5232 23.91 0.030023 29.5232 23.91 0.030023
410 2 31.3751 23.9045 1.5186 31.3751 23.9045 1.5186
411 2 31.3856 23.9309 -1.7559 31.3856 23.9309 -1.7559
412 1 32.2772 25.6663 -0.0527175 32.2772 25.6663 -0.0527175
413 2 34.1377 25.5821 1.44033 34.1377 25.5821 1.44033
414 2 34.179 25.782 -1.69664 34.179 25.782 -1.69664
415 1 35.2228 23.8718 -0.193187 35.2228 23.8718 -0.193187
416 2 37.1973 23.7417 1.3647 37.1973 23.7417 1.3647
417 2 37.0484 23.8541 -1.94766 37.0484 23.8541 -1.94766
418 1 38.0158 25.7271 -0.303352 38.0158 25.7271 -0.303352
419 2 40.2719 25.5849 1.21058 40.2719 25.5849 1.21058
420 2 39.7785 25.7004 -2.03815 39.7785 25.7004 -2.03815
421 1 41.0089 23.8668 -0.551488 41.0089 23.8668 -0.551488
422 2 42.8918 23.7621 1.22214 42.8918 23.7621 1.22214
423 2 43.1247 24.0621 -2.09055 43.1247 24.0621 -2.09055
424 1 43.8519 25.7507 -0.247564 43.8519 25.7507 -0.247564
425 2 45.6706 25.6051 1.4162 45.6706 25.6051 1.4162
426 2 45.8399 25.6631 -1.78815 45.8399 25.6631 -1.78815
427 1 46.7108 23.8565 -0.129242 46.7108 23.8565 -0.129242
428 2 48.6388 23.9848 1.51826 48.6388 23.9848 1.51826
429 2 48.6851 23.7883 -1.6807 48.6851 23.7883 -1.6807
430 1 49.5921 25.7824 -0.122835 49.5921 25.7824 -0.122835
431 2 51.4379 25.9564 1.57753 51.4379 25.9564 1.57753
432 2 51.6605 25.6579 -1.59373 51.6605 25.6579 -1.59373
433 1 1.00676 27.5581 -0.0529143 1.00676 27.5581 -0.0529143
434 2 2.65796 27.731 1.87141 2.65796 27.731 1.87141
435 2 2.9997 27.5248 -1.38025 2.9997 27.5248 -1.38025
436 1 3.77868 29.2771 0.29977 3.77868 29.2771 0.29977
437 2 5.78366 29.4026 1.82043 5.78366 29.4026 1.82043
438 2 5.65183 29.2821 -1.49242 5.65183 29.2821 -1.49242
439 1 6.75328 27.5364 0.251077 6.75328 27.5364 0.251077
440 2 8.71237 27.624 1.77033 8.71237 27.624 1.77033
441 2 8.6001 27.3373 -1.44016 8.6001 27.3373 -1.44016
442 1 9.51301 29.2863 -0.106886 9.51301 29.2863 -0.106886
443 2 11.5569 29.1995 1.38142 11.5569 29.1995 1.38142
444 2 11.5094 29.3877 -1.82131 11.5094 29.3877 -1.82131
445 1 12.4522 27.5096 -0.289958 12.4522 27.5096 -0.289958
446 2 14.1763 27.6605 1.46884 14.1763 27.6605 1.46884
447 2 14.4181 27.399 -1.74008 14.4181 27.399 -1.74008
448 1 15.2738 29.35 -0.132451 15.2738 29.35 -0.132451
449 2 17.3743 29.416 1.47727 17.3743 29.416 1.47727
450 2 17.2767 29.1783 -1.73037 17.2767 29.1783 -1.73037
451 1 18.202 27.4933 -0.0784631 18.202 27.4933 -0.0784631
452 2 20.2847 27.4545 1.40741 20.2847 27.4545 1.40741
453 2 20.0585 27.5725 -1.63655 20.0585 27.5725 -1.63655
454 1 21.0294 29.4009 -0.137989 21.0294 29.4009 -0.137989
455 2 22.9141 29.3551 1.55435 22.9141 29.3551 1.55435
456 2 23.1141 29.4161 -1.59389 23.1141 29.4161 -1.59389
457 1 23.9242 27.5936 -0.00489313 23.9242 27.5936 -0.00489313
458 2 25.7661 27.4378 1.69758 25.7661 27.4378 1.69758
459 2 25.9449 27.5866 -1.61139 25.9449 27.5866 -1.61139
460 1 26.802 29.2778 0.228038 26.802 29.2778 0.228038
461 2 28.6727 29.4308 1.79399 28.6727 29.4308 1.79399
462 2 28.669 29.2063 -1.39378 28.669 29.2063 -1.39378
463 1 29.585 27.5567 0.194159 29.585 27.5567 0.194159
464 2 31.6313 27.5563 1.62327 31.6313 27.5563 1.62327
465 2 31.3452 27.3755 -1.61484 31.3452 27.3755 -1.61484
466 1 32.3885 29.2905 -0.173324 32.3885 29.2905 -0.173324
467 2 34.3064 29.4793 1.37781 34.3064 29.4793 1.37781
468 2 34.3031 29.3188 -1.87373 34.3031 29.3188 -1.87373
469 1 35.1439 27.5785 -0.0910789 35.1439 27.5785 -0.0910789
470 2 37.0791 27.4691 1.41734 37.0791 27.4691 1.41734
471 2 37.0011 27.5757 -1.79914 37.0011 27.5757 -1.79914
472 1 38.058 29.2345 -0.195044 38.058 29.2345 -0.195044
473 2 40.2333 29.2891 1.2771 40.2333 29.2891 1.2771
474 2 39.8386 29.161 -2.10067 39.8386 29.161 -2.10067
475 1 40.9606 27.4873 -0.478351 40.9606 27.4873 -0.478351
476 2 42.7818 27.5655 1.25473 42.7818 27.5655 1.25473
477 2 42.9521 27.3885 -1.93136 42.9521 27.3885 -1.93136
478 1 43.7992 29.2636 -0.336721 43.7992 29.2636 -0.336721
479 2 45.6226 29.3382 1.32792 45.6226 29.3382 1.32792
480 2 45.7148 29.2918 -1.8718 45.7148 29.2918 -1.8718
481 1 46.7106 27.5384 -0.17634 46.7106 27.5384 -0.17634
482 2 48.6012 27.5357 1.47362 48.6012 27.5357 1.47362
483 2 48.6419 27.4681 -1.78626 48.6419 27.4681 -1.78626
484 1 49.5318 29.2907 -0.181658 49.5318 29.2907 -0.181658
485 2 51.3515 29.3661 1.55978 51.3515 29.3661 1.55978
486 2 51.5887 29.3012 -1.65056 51.5887 29.3012 -1.65056
487 1 1.02725 31.07 0.0775115 1.02725 31.07 0.0775115
488 2 2.95911 31.1822 1.63298 2.95911 31.1822 1.63298
489 2 2.94888 30.9146 -1.47213 2.94888 30.9146 -1.47213
490 1 3.85351 32.8906 -0.135306 3.85351 32.8906 -0.135306
491 2 5.74733 32.9453 1.5204 5.74733 32.9453 1.5204
492 2 5.83347 32.76 -1.66209 5.83347 32.76 -1.66209
493 1 6.65394 31.0772 0.0686091 6.65394 31.0772 0.0686091
494 2 8.77332 31.0825 1.5502 8.77332 31.0825 1.5502
495 2 8.49392 31.0191 -1.65246 8.49392 31.0191 -1.65246
496 1 9.4574 32.8841 -0.196608 9.4574 32.8841 -0.196608
497 2 11.3626 32.6972 1.46381 11.3626 32.6972 1.46381
498 2 11.3619 32.724 -1.83929 11.3619 32.724 -1.83929
499 1 12.3819 31.094 -0.266639 12.3819 31.094 -0.266639
500 2 14.2604 31.2433 1.32366 14.2604 31.2433 1.32366
501 2 14.2781 30.9369 -1.98313 14.2781 30.9369 -1.98313
502 1 15.1151 32.9112 -0.433634 15.1151 32.9112 -0.433634
503 2 16.9809 32.8974 1.33542 16.9809 32.8974 1.33542
504 2 17.2917 32.9578 -1.81911 17.2917 32.9578 -1.81911
505 1 18.1194 31.0712 -0.273126 18.1194 31.0712 -0.273126
506 2 19.9509 31.0902 1.48042 19.9509 31.0902 1.48042
507 2 20.2465 31.2685 -1.77545 20.2465 31.2685 -1.77545
508 1 20.949 32.8889 -0.016055 20.949 32.8889 -0.016055
509 2 22.9075 32.9643 1.6055 22.9075 32.9643 1.6055
510 2 22.9411 32.8573 -1.54841 22.9411 32.8573 -1.54841
511 1 23.8191 31.1044 0.026066 23.8191 31.1044 0.026066
512 2 25.7176 31.1146 1.72315 25.7176 31.1146 1.72315
513 2 25.9309 30.8995 -1.49552 25.9309 30.8995 -1.49552
514 1 26.6626 32.8339 0.131004 26.6626 32.8339 0.131004
515 2 28.6947 32.9545 1.68034 28.6947 32.9545 1.68034
516 2 28.5943 32.8265 -1.50619 28.5943 32.8265 -1.50619
517 1 29.5677 31.1034 0.0810258 29.5677 31.1034 0.0810258
518 2 31.7067 31.1721 1.44733 31.7067 31.1721 1.44733
519 2 31.3823 31.112 -1.72141 31.3823 31.112 -1.72141
520 1 32.3996 33.0081 -0.213682 32.3996 33.0081 -0.213682
521 2 34.3138 32.9182 1.28903 34.3138 32.9182 1.28903
522 2 34.2916 33.0078 -1.89036 34.2916 33.0078 -1.89036
523 1 35.134 31.1955 -0.38836 35.134 31.1955 -0.38836
524 2 37.0585 31.172 1.2333 37.0585 31.172 1.2333
525 2 37.095 30.9662 -1.93971 37.095 30.9662 -1.93971
526 1 38.051 32.9769 -0.547397 38.051 32.9769 -0.547397
527 2 40.0493 32.9118 1.20976 40.0493 32.9118 1.20976
528 2 40.157 32.9831 -2.07113 40.157 32.9831 -2.07113
529 1 40.8714 31.108 -0.419584 40.8714 31.108 -0.419584
530 2 42.7593 31.1194 1.26272 42.7593 31.1194 1.26272
531 2 42.8722 31.1299 -1.91304 42.8722 31.1299 -1.91304
532 1 43.8132 32.9417 -0.300751 43.8132 32.9417 -0.300751
533 2 45.7283 32.8754 1.37798 45.7283 32.8754 1.37798
534 2 45.9077 32.9722 -1.84527 45.9077 32.9722 -1.84527
535 1 46.6614 31.0659 -0.226983 46.6614 31.0659 -0.226983
536 2 48.4559 31.0671 1.34438 48.4559 31.0671 1.34438
537 2 48.4998 31.144 -1.80266 48.4998 31.144 -1.80266
538 1 49.4281 32.9579 -0.21613 49.4281 32.9579 -0.21613