ITEM: TIMESTEP
3455000
ITEM: NUMBER OF ATOMS
810
ITEM: BOX BOUNDS pp pp pp
8.0341777045796159e-01 5.2214187229542503e+01
-7.7288203223639176e+00 5.8745035322362781e+01
-1.0000000000000000e+01 1.0000000000000000e+01
ITEM: ATOMS id type x y z xu yu zu
1 1 0.971306 57.9169 0.577709 0.971306 -8.55699 0.577709
2 2 2.73588 57.3908 2.29449 2.73588 -9.08306 2.29449
3 2 2.91288 58.4523 -0.75398 2.91288 -8.02157 -0.75398
4 1 3.80406 -7.11857 1.33878 3.80406 -7.11857 1.33878
5 2 5.67045 -7.73649 2.84653 5.67045 -7.73649 2.84653
6 2 5.80148 -6.46838 -0.105906 5.80148 -6.46838 -0.105906
7 1 6.6605 57.8068 0.700708 6.6605 -8.6671 0.700708
8 2 8.3727 57.1865 2.34111 8.3727 -9.28734 2.34111
9 2 8.68229 58.329 -0.741849 8.68229 -8.14489 -0.741849
10 1 9.59193 -7.23552 1.52382 9.59193 -7.23552 1.52382
11 2 11.4153 58.6465 3.09491 11.4153 -7.8274 3.09491
12 2 11.5195 -6.54755 0.108083 11.5195 -6.54755 0.108083
13 1 12.3665 57.6973 0.999943 12.3665 -8.77653 0.999943
14 2 14.189 57.0821 2.75892 14.189 -9.3918 2.75892
15 2 14.4913 58.081 -0.249879 14.4913 -8.39285 -0.249879
16 1 15.1979 -7.28187 1.80836 15.1979 -7.28187 1.80836
17 2 16.8318 58.6977 3.61318 16.8318 -7.77619 3.61318
18 2 17.2732 -7.02214 0.546813 17.2732 -7.02214 0.546813
19 1 18.015 57.4051 1.74178 18.015 -9.06876 1.74178
20 2 19.9807 56.84 3.1266 19.9807 -9.6339 3.1266
21 2 19.8732 57.93 0.134168 19.8732 -8.54389 0.134168
22 1 20.9293 -7.48706 2.21869 20.9293 -7.48706 2.21869
23 2 22.7562 58.3673 3.76441 22.7562 -8.10658 3.76441
24 2 22.8219 -6.95278 0.732273 22.8219 -6.95278 0.732273
25 1 23.8136 57.433 1.77077 23.8136 -9.04085 1.77077
26 2 26.0355 56.888 2.95311 26.0355 -9.58581 2.95311
27 2 25.4818 58.0956 -0.0617045 25.4818 -8.3783 -0.0617045
28 1 26.676 -7.38456 1.92324 26.676 -7.38456 1.92324
29 2 28.5999 58.4907 3.49174 28.5999 -7.98312 3.49174
30 2 28.5414 -6.53702 0.412872 28.5414 -6.53702 0.412872
31 1 29.5252 57.7285 1.23569 29.5252 -8.74535 1.23569
32 2 31.572 57.0508 2.46986 31.572 -9.42306 2.46986
33 2 31.3079 58.5111 -0.401741 31.3079 -7.96272 -0.401741
34 1 32.4242 -7.08218 1.71365 32.4242 -7.08218 1.71365
35 2 34.3488 58.5802 3.02186 34.3488 -7.89367 3.02186
36 2 34.1425 -6.28319 0.234716 34.1425 -6.28319 0.234716
37 1 35.2657 57.9281 0.802443 35.2657 -8.54574 0.802443
38 2 37.0468 57.1363 2.39038 37.0468 -9.3376 2.39038
39 2 37.2165 58.5806 -0.585605 37.2165 -7.8933 -0.585605
40 1 38.0862 -7.17238 1.70524 38.0862 -7.17238 1.70524
41 2 39.995 58.6106 3.12636 39.995 -7.86325 3.12636
42 2 39.9856 -6.4851 0.295521 39.9856 -6.4851 0.295521
43 1 40.9696 57.7822 0.90716 40.9696 -8.69163 0.90716
44 2 42.9173 57.0166 2.15178 42.9173 -9.45726 2.15178
45 2 42.752 -7.82585 -0.622277 42.752 -7.82585 -0.622277
46 1 43.8478 -7.1409 1.59906 43.8478 -7.1409 1.59906
47 2 45.8846 58.6921 2.98206 45.8846 -7.78175 2.98206
48 2 45.7239 -6.48316 -0.0524478 45.7239 -6.48316 -0.0524478
49 1 46.7149 57.8334 0.806592 46.7149 -8.64048 0.806592
50 2 48.5715 57.2777 2.27921 48.5715 -9.19618 2.27921
51 2 48.4515 58.4624 -0.838093 48.4515 -8.01146 -0.838093
52 1 49.4563 -7.08828 1.23712 49.4563 -7.08828 1.23712
53 2 51.4165 -7.68587 2.70812 51.4165 -7.68587 2.70812
54 2 51.3614 -6.4962 -0.332565 51.3614 -6.4962 -0.332565
55 1 0.920996 -5.55931 1.91889 0.920996 -5.55931 1.91889
56 2 2.75503 -6.17729 3.511 2.75503 -6.17729 3.511
57 2 2.91168 -4.98998 0.570794 2.91168 -4.98998 0.570794
58 1 3.78771 -4.14287 2.65374 3.78771 -4.14287 2.65374
59 2 5.74187 -4.6362 4.31198 5.74187 -4.6362 4.31198
60 2 5.77328 -3.54202 1.19326 5.77328 -3.54202 1.19326
61 1 6.77298 -5.64085 2.0454 6.77298 -5.64085 2.0454
62 2 8.54441 -6.44281 3.61121 8.54441 -6.44281 3.61121
63 2 8.78741 -4.9957 0.654709 8.78741 -4.9957 0.654709
64 1 9.56335 -4.28716 2.96705 9.56335 -4.28716 2.96705
65 2 11.4861 -4.81023 4.43105 11.4861 -4.81023 4.43105
66 2 11.3081 -3.48111 1.40293 11.3081 -3.48111 1.40293
67 1 12.3353 -5.67492 2.23242 12.3353 -5.67492 2.23242
68 2 13.9768 -6.46818 3.8678 13.9768 -6.46818 3.8678
69 2 14.4091 -5.06774 0.870506 14.4091 -5.06774 0.870506
70 1 15.1367 -4.4115 3.18825 15.1367 -4.4115 3.18825
71 2 17.0775 -5.01587 4.76737 17.0775 -5.01587 4.76737
72 2 17.134 -3.73067 1.766 17.134 -3.73067 1.766
73 1 18.0962 -5.85541 2.72053 18.0962 -5.85541 2.72053
74 2 19.9147 -6.46577 4.38277 19.9147 -6.46577 4.38277
75 2 20.0043 -5.39547 1.26073 20.0043 -5.39547 1.26073
76 1 20.979 -4.31049 3.30833 20.979 -4.31049 3.30833
77 2 22.7969 -4.96284 4.96304 22.7969 -4.96284 4.96304
78 2 23.0787 -3.64412 1.89119 23.0787 -3.64412 1.89119
79 1 23.8561 -5.94009 2.77659 23.8561 -5.94009 2.77659
80 2 25.7472 -6.58925 4.13401 25.7472 -6.58925 4.13401
81 2 25.6495 -5.23455 1.18641 25.6495 -5.23455 1.18641
82 1 26.6888 -4.41712 3.33851 26.6888 -4.41712 3.33851
83 2 28.6636 -4.83713 4.85488 28.6636 -4.83713 4.85488
84 2 28.52 -3.50637 1.87831 28.52 -3.50637 1.87831
85 1 29.5231 -5.7507 2.6147 29.5231 -5.7507 2.6147
86 2 31.5338 -6.4822 4.02895 31.5338 -6.4822 4.02895
87 2 31.3667 -4.87579 1.16046 31.3667 -4.87579 1.16046
88 1 32.4136 -4.23419 3.28328 32.4136 -4.23419 3.28328
89 2 34.3301 -4.86531 4.60087 34.3301 -4.86531 4.60087
90 2 34.1225 -3.43688 1.66568 34.1225 -3.43688 1.66568
91 1 35.2422 -5.58388 2.39142 35.2422 -5.58388 2.39142
92 2 37.2055 -6.22382 3.90783 37.2055 -6.22382 3.90783
93 2 37.2076 -4.99801 0.91065 37.2076 -4.99801 0.91065
94 1 38.1195 -4.10864 3.06268 38.1195 -4.10864 3.06268
95 2 40.0034 -4.80463 4.61769 40.0034 -4.80463 4.61769
96 2 40.0602 -3.38795 1.67817 40.0602 -3.38795 1.67817
97 1 40.9494 -5.57293 2.45836 40.9494 -5.57293 2.45836
98 2 42.9608 -6.24132 3.75568 42.9608 -6.24132 3.75568
99 2 42.7832 -5.05688 0.812977 42.7832 -5.05688 0.812977
100 1 43.8238 -4.07694 2.82678 43.8238 -4.07694 2.82678
101 2 45.9274 -4.70746 4.30492 45.9274 -4.70746 4.30492
102 2 45.7543 -3.38248 1.23984 45.7543 -3.38248 1.23984
103 1 46.7369 -5.52767 2.10808 46.7369 -5.52767 2.10808
104 2 48.6638 -6.28253 3.47626 48.6638 -6.28253 3.47626
105 2 48.4387 -4.98547 0.407982 48.4387 -4.98547 0.407982
106 1 49.5367 -4.09621 2.58522 49.5367 -4.09621 2.58522
107 2 51.4216 -4.74451 4.05573 51.4216 -4.74451 4.05573
108 2 51.4643 -3.39407 1.02108 51.4643 -3.39407 1.02108
109 1 0.90199 -2.49242 3.18506 0.90199 -2.49242 3.18506
110 2 2.8348 -3.06718 4.75126 2.8348 -3.06718 4.75126
111 2 2.75653 -1.92699 1.6641 2.75653 -1.92699 1.6641
112 1 3.76237 -0.98567 3.78561 3.76237 -0.98567 3.78561
113 2 5.71817 -1.47437 5.426 5.71817 -1.47437 5.426
114 2 5.70729 -0.531437 2.25228 5.70729 -0.531437 2.25228
115 1 6.69649 -2.6195 3.31216 6.69649 -2.6195 3.31216
116 2 8.3772 -3.19612 5.00003 8.3772 -3.19612 5.00003
117 2 8.80965 -2.1515 1.87554 8.80965 -2.1515 1.87554
118 1 9.45959 -1.08122 4.02148 9.45959 -1.08122 4.02148
119 2 11.2971 -1.69939 5.67567 11.2971 -1.69939 5.67567
120 2 11.3842 -0.481609 2.55151 11.3842 -0.481609 2.55151
121 1 12.3092 -2.65668 3.59367 12.3092 -2.65668 3.59367
122 2 14.1122 -3.36024 5.1969 14.1122 -3.36024 5.1969
123 2 14.3086 -2.33953 2.19158 14.3086 -2.33953 2.19158
124 1 15.1899 -1.32561 4.4081 15.1899 -1.32561 4.4081
125 2 16.8795 -1.87098 6.07763 16.8795 -1.87098 6.07763
126 2 17.1219 -0.699553 2.92902 17.1219 -0.699553 2.92902
127 1 18.021 -2.75215 3.96873 18.021 -2.75215 3.96873
128 2 19.8903 -3.3879 5.529 19.8903 -3.3879 5.529
129 2 20.0738 -2.19026 2.49336 20.0738 -2.19026 2.49336
130 1 20.9108 -1.25131 4.58985 20.9108 -1.25131 4.58985
131 2 22.8342 -1.90324 6.09444 22.8342 -1.90324 6.09444
132 2 22.8408 -0.747307 3.02868 22.8408 -0.747307 3.02868
133 1 23.8305 -2.83413 4.0201 23.8305 -2.83413 4.0201
134 2 25.8859 -3.34014 5.36638 25.8859 -3.34014 5.36638
135 2 25.6689 -2.30382 2.35115 25.6689 -2.30382 2.35115
136 1 26.7724 -1.25416 4.3754 26.7724 -1.25416 4.3754
137 2 28.5682 -1.9729 5.96782 28.5682 -1.9729 5.96782
138 2 28.8259 -0.664889 3.00743 28.8259 -0.664889 3.00743
139 1 29.5795 -2.79502 3.93768 29.5795 -2.79502 3.93768
140 2 31.4294 -3.4464 5.4417 31.4294 -3.4464 5.4417
141 2 31.5484 -2.05087 2.52655 31.5484 -2.05087 2.52655
142 1 32.4762 -1.30174 4.83495 32.4762 -1.30174 4.83495
143 2 34.4478 -1.91677 6.12461 34.4478 -1.91677 6.12461
144 2 34.1694 -0.52099 3.0538 34.1694 -0.52099 3.0538
145 1 35.3026 -2.70915 3.85123 35.3026 -2.70915 3.85123
146 2 37.222 -3.48143 5.29757 37.222 -3.48143 5.29757
147 2 37.0583 -2.01821 2.36692 37.0583 -2.01821 2.36692
148 1 37.973 -1.17137 4.50605 37.973 -1.17137 4.50605
149 2 39.9208 -1.65145 5.88364 39.9208 -1.65145 5.88364
150 2 39.9523 -0.582306 2.93308 39.9523 -0.582306 2.93308
151 1 40.957 -2.62496 3.87115 40.957 -2.62496 3.87115
152 2 43.1477 -3.19962 5.02394 43.1477 -3.19962 5.02394
153 2 42.7758 -1.91145 2.05237 42.7758 -1.91145 2.05237
154 1 43.8376 -1.0358 4.17717 43.8376 -1.0358 4.17717
155 2 45.8207 -1.48526 5.60309 45.8207 -1.48526 5.60309
156 2 45.5932 -0.372547 2.57264 45.5932 -0.372547 2.57264
157 1 46.6655 -2.48355 3.43685 46.6655 -2.48355 3.43685
158 2 48.5476 -3.18373 4.85533 48.5476 -3.18373 4.85533
159 2 48.5729 -1.82179 1.91887 48.5729 -1.82179 1.91887
160 1 49.548 -0.984957 4.1445 49.548 -0.984957 4.1445
161 2 51.5584 -1.53712 5.39064 51.5584 -1.53712 5.39064
162 2 51.2422 -0.291945 2.44766 51.2422 -0.291945 2.44766
163 1 0.985897 0.579941 4.51232 0.985897 0.579941 4.51232
164 2 2.99307 -0.0515802 5.92234 2.99307 -0.0515802 5.92234
165 2 2.82279 1.18246 2.86331 2.82279 1.18246 2.86331
166 1 3.91356 2.06103 4.91473 3.91356 2.06103 4.91473
167 2 5.73318 1.35927 6.54659 5.73318 1.35927 6.54659
168 2 5.76719 2.77019 3.5667 5.76719 2.77019 3.5667
169 1 6.6926 0.563911 4.35318 6.6926 0.563911 4.35318
170 2 8.40537 -0.11584 6.06331 8.40537 -0.11584 6.06331
171 2 8.78698 1.11544 3.05521 8.78698 1.11544 3.05521
172 1 9.51755 2.04486 5.27176 9.51755 2.04486 5.27176
173 2 11.3815 1.37322 6.76831 11.3815 1.37322 6.76831
174 2 11.5321 2.62052 3.73048 11.5321 2.62052 3.73048
175 1 12.3701 0.443487 4.67804 12.3701 0.443487 4.67804
176 2 14.0939 -0.243969 6.41126 14.0939 -0.243969 6.41126
177 2 14.5255 0.859868 3.44263 14.5255 0.859868 3.44263
178 1 15.3109 1.84937 5.64074 15.3109 1.84937 5.64074
179 2 17.1258 1.18625 7.26772 17.1258 1.18625 7.26772
180 2 17.2535 2.35543 4.20571 17.2535 2.35543 4.20571
181 1 18.0083 0.264377 5.14928 18.0083 0.264377 5.14928
182 2 19.822 -0.464592 6.78539 19.822 -0.464592 6.78539
183 2 19.9781 0.870056 3.74 19.9781 0.870056 3.74
184 1 20.9276 1.67576 5.8935 20.9276 1.67576 5.8935
185 2 22.9554 1.11707 7.25619 22.9554 1.11707 7.25619
186 2 22.8585 2.25312 4.29016 22.8585 2.25312 4.29016
187 1 23.8458 0.163517 5.20235 23.8458 0.163517 5.20235
188 2 25.786 -0.356821 6.64605 25.786 -0.356821 6.64605
189 2 25.6607 0.815704 3.60837 25.6607 0.815704 3.60837
190 1 26.7237 1.72638 5.77145 26.7237 1.72638 5.77145
191 2 28.7428 1.08717 7.31567 28.7428 1.08717 7.31567
192 2 28.6069 2.34547 4.27784 28.6069 2.34547 4.27784
193 1 29.5448 0.173539 5.15128 29.5448 0.173539 5.15128
194 2 31.4521 -0.329298 6.87414 31.4521 -0.329298 6.87414
195 2 31.5057 0.760722 3.75996 31.5057 0.760722 3.75996
196 1 32.4349 1.78808 5.72698 32.4349 1.78808 5.72698
197 2 34.3375 1.3485 7.27227 34.3375 1.3485 7.27227
198 2 34.2771 2.49525 4.21023 34.2771 2.49525 4.21023
199 1 35.2517 0.332626 5.16639 35.2517 0.332626 5.16639
200 2 37.1125 -0.251085 6.7741 37.1125 -0.251085 6.7741
201 2 37.1423 1.0496 3.64585 37.1423 1.0496 3.64585
202 1 38.0936 1.87968 5.84511 38.0936 1.87968 5.84511
203 2 40.1555 1.13955 7.26318 40.1555 1.13955 7.26318
204 2 39.9681 2.53818 4.3547 39.9681 2.53818 4.3547
205 1 40.9398 0.389002 4.99954 40.9398 0.389002 4.99954
206 2 42.9467 -0.112556 6.35202 42.9467 -0.112556 6.35202
207 2 42.8554 1.12492 3.4055 42.8554 1.12492 3.4055
208 1 43.9284 2.00716 5.48969 43.9284 2.00716 5.48969
209 2 45.6974 1.10201 6.82482 45.6974 1.10201 6.82482
210 2 45.6866 2.79578 4.02519 45.6866 2.79578 4.02519
211 1 46.6272 0.572854 4.59606 46.6272 0.572854 4.59606
212 2 48.3886 -0.227969 6.2471 48.3886 -0.227969 6.2471
213 2 48.7148 1.22443 3.37709 48.7148 1.22443 3.37709
214 1 49.5012 1.92486 5.63272 49.5012 1.92486 5.63272
215 2 51.5876 1.07687 6.83659 51.5876 1.07687 6.83659
216 2 51.2207 2.70269 3.97374 51.2207 2.70269 3.97374
217 1 0.997679 3.42858 6.18893 0.997679 3.42858 6.18893
218 2 3.25431 2.82029 7.21544 3.25431 2.82029 7.21544
219 2 2.59952 4.22537 4.39688 2.59952 4.22537 4.39688
220 1 3.76083 5.08276 6.40454 3.76083 5.08276 6.40454
221 2 5.59281 4.24059 7.96968 5.59281 4.24059 7.96968
222 2 5.89899 5.88592 5.16971 5.89899 5.88592 5.16971
223 1 6.65077 3.56783 5.86039 6.65077 3.56783 5.86039
224 2 8.37961 2.77906 7.38305 8.37961 2.77906 7.38305
225 2 8.70563 4.21069 4.42884 8.70563 4.21069 4.42884
226 1 9.54988 5.0148 6.7445 9.54988 5.0148 6.7445
227 2 11.6367 4.2805 8.1988 11.6367 4.2805 8.1988
228 2 11.4585 5.78534 5.28357 11.4585 5.78534 5.28357
229 1 12.4324 3.49437 5.91976 12.4324 3.49437 5.91976
230 2 14.063 2.61703 7.54794 14.063 2.61703 7.54794
231 2 14.6458 4.13541 4.67469 14.6458 4.13541 4.67469
232 1 15.2623 4.88505 6.96244 15.2623 4.88505 6.96244
233 2 17.1064 4.12441 8.47096 17.1064 4.12441 8.47096
234 2 17.189 5.56006 5.54829 17.189 5.56006 5.54829
235 1 18.0594 3.36977 6.31511 18.0594 3.36977 6.31511
236 2 19.896 2.70381 7.85997 19.896 2.70381 7.85997
237 2 20.1045 3.67133 4.8819 20.1045 3.67133 4.8819
238 1 20.9982 4.84254 7.00371 20.9982 4.84254 7.00371
239 2 22.9615 4.36703 8.4767 22.9615 4.36703 8.4767
240 2 22.7664 5.47682 5.35038 22.7664 5.47682 5.35038
241 1 23.7767 3.30894 6.33524 23.7767 3.30894 6.33524
242 2 25.6476 2.65107 7.77711 25.6476 2.65107 7.77711
243 2 25.6457 3.88145 4.85817 25.6457 3.88145 4.85817
244 1 26.5796 4.73675 7.0367 26.5796 4.73675 7.0367
245 2 28.5382 4.35762 8.49197 28.5382 4.35762 8.49197
246 2 28.4203 5.19911 5.37602 28.4203 5.19911 5.37602
247 1 29.4976 3.25922 6.41384 29.4976 3.25922 6.41384
248 2 31.4741 2.652 7.91248 31.4741 2.652 7.91248
249 2 31.3745 3.85649 4.92435 31.3745 3.85649 4.92435
250 1 32.3441 4.78163 7.04817 32.3441 4.78163 7.04817
251 2 34.4035 4.35236 8.46181 34.4035 4.35236 8.46181
252 2 34.2586 5.4966 5.37382 34.2586 5.4966 5.37382
253 1 35.2921 3.44078 6.27999 35.2921 3.44078 6.27999
254 2 37.1255 2.78467 7.9175 37.1255 2.78467 7.9175
255 2 37.2438 4.0499 4.94656 37.2438 4.0499 4.94656
256 1 38.0827 4.97743 7.0588 38.0827 4.97743 7.0588
257 2 41.5999 5.52551 7.72989 41.5999 5.52551 7.72989
258 2 39.8882 5.49164 5.43572 39.8882 5.49164 5.43572
259 1 40.9977 3.34836 6.50968 40.9977 3.34836 6.50968
260 2 43.3116 3.01157 7.71047 43.3116 3.01157 7.71047
261 2 42.7936 4.00153 4.7186 42.7936 4.00153 4.7186
262 1 43.8544 5.20577 6.62458 43.8544 5.20577 6.62458
263 2 45.6103 4.7004 8.43301 45.6103 4.7004 8.43301
264 2 46.0691 5.54347 5.26095 46.0691 5.54347 5.26095
265 1 46.6589 3.43352 6.36466 46.6589 3.43352 6.36466
266 2 48.6939 2.87284 7.76945 48.6939 2.87284 7.76945
267 2 48.4576 3.98072 4.66102 48.4576 3.98072 4.66102
268 1 49.6097 5.03616 6.76914 49.6097 5.03616 6.76914
269 2 51.5555 4.46563 8.37426 51.5555 4.46563 8.37426
270 2 51.5244 5.54742 5.26534 51.5244 5.54742 5.26534
271 1 1.07454 6.56656 7.34273 1.07454 6.56656 7.34273
272 2 2.98042 5.88697 8.68577 2.98042 5.88697 8.68577
273 2 2.78827 7.30422 5.70777 2.78827 7.30422 5.70777
274 1 3.85 8.02221 7.8537 3.85 8.02221 7.8537
275 2 5.55248 7.11634 9.52998 5.55248 7.11634 9.52998
276 2 5.96245 8.6976 6.68366 5.96245 8.6976 6.68366
277 1 6.67691 6.38086 7.46094 6.67691 6.38086 7.46094
278 2 8.56002 5.66286 8.996 8.56002 5.66286 8.996
279 2 8.62562 7.16011 6.00836 8.62562 7.16011 6.00836
280 1 9.57459 7.91501 8.30416 9.57459 7.91501 8.30416
281 2 11.4787 7.20999 9.635 11.4787 7.20999 9.635
282 2 11.3866 8.64672 6.60984 11.3866 8.64672 6.60984
283 1 12.3802 6.46824 7.36523 12.3802 6.46824 7.36523
284 2 14.1063 5.72025 9.00124 14.1063 5.72025 9.00124
285 2 14.4985 7.10851 6.1102 14.4985 7.10851 6.1102
286 1 15.1671 7.90075 8.3387 15.1671 7.90075 8.3387
287 2 16.896 6.93627 -10.0494 16.896 6.93627 9.95056
288 2 17.2414 8.61608 7.1269 17.2414 8.61608 7.1269
289 1 18.1438 6.33276 7.80678 18.1438 6.33276 7.80678
290 2 20.0383 5.82066 9.2883 20.0383 5.82066 9.2883
291 2 19.895 6.99666 6.04974 19.895 6.99666 6.04974
292 1 20.8451 7.98389 8.23506 20.8451 7.98389 8.23506
293 2 22.9888 7.7104 9.56423 22.9888 7.7104 9.56423
294 2 22.4352 8.45227 6.45192 22.4352 8.45227 6.45192
295 1 23.7837 6.52772 7.40882 23.7837 6.52772 7.40882
296 2 25.5623 5.86377 9.0206 25.5623 5.86377 9.0206
297 2 25.7139 6.94968 6.0042 25.7139 6.94968 6.0042
298 1 26.5937 7.9648 8.01567 26.5937 7.9648 8.01567
299 2 28.5471 7.4459 9.47036 28.5471 7.4459 9.47036
300 2 28.4036 8.36094 6.2905 28.4036 8.36094 6.2905
301 1 29.3953 6.47002 7.36728 29.3953 6.47002 7.36728
302 2 31.3335 6.12297 8.88964 31.3335 6.12297 8.88964
303 2 31.4478 6.69359 5.83676 31.4478 6.69359 5.83676
304 1 32.2883 8.06744 7.70093 32.2883 8.06744 7.70093
305 2 33.9135 7.51531 9.48586 33.9135 7.51531 9.48586
306 2 34.4968 8.80453 7.06952 34.4968 8.80453 7.06952
307 1 35.155 6.46509 7.49142 35.155 6.46509 7.49142
308 2 37.1186 6.62681 8.74078 37.1186 6.62681 8.74078
309 2 37.0467 6.78577 5.82377 37.0467 6.78577 5.82377
310 1 38.6396 29.0279 8.77014 38.6396 29.0279 -11.2299
311 2 39.4783 26.7611 9.02267 39.4783 26.7611 -10.9773
312 2 40.7808 29.9413 8.15771 40.7808 29.9413 -11.8423
313 1 41.6586 27.6026 8.34603 41.6586 27.6026 -11.654
314 2 41.4853 27.4634 -9.14675 41.4853 27.4634 -9.14675
315 2 43.5343 25.9371 9.05761 43.5343 25.9371 -10.9424
316 1 44.1028 27.8331 -9.33614 44.1028 27.8331 -9.33614
317 2 46.4507 26.7886 -8.80337 46.4507 26.7886 -8.80337
318 2 45.8763 28.0769 8.89027 45.8763 28.0769 -11.1097
319 1 46.7178 6.72863 7.40285 46.7178 6.72863 7.40285
320 2 48.5072 5.82952 8.85077 48.5072 5.82952 8.85077
321 2 48.7599 7.20366 5.96068 48.7599 7.20366 5.96068
322 1 49.541 8.07673 8.19102 49.541 8.07673 8.19102
323 2 51.5352 7.2525 9.45595 51.5352 7.2525 9.45595
324 2 51.3235 8.70895 6.56407 51.3235 8.70895 6.56407
325 1 0.869054 9.59683 8.66973 0.869054 9.59683 8.66973
326 2 3.07907 8.99616 9.98394 3.07907 8.99616 9.98394
327 2 2.69511 10.0483 6.94404 2.69511 10.0483 6.94404
328 1 3.71967 11.0819 8.97116 3.71967 11.0819 8.97116
329 2 5.51675 10.7231 -9.30938 5.51675 10.7231 10.6906
330 2 5.71104 11.1869 7.53988 5.71104 11.1869 7.53988
331 1 6.62113 9.35697 8.91969 6.62113 9.35697 8.91969
332 2 8.51273 8.68597 -9.47868 8.51273 8.68597 10.5213
333 2 8.60538 10.0163 7.5364 8.60538 10.0163 7.5364
334 1 9.53021 10.8213 9.81317 9.53021 10.8213 9.81317
335 2 11.7615 10.0449 -9.00952 11.7615 10.0449 10.9905
336 2 11.2467 11.6501 8.15181 11.2467 11.6501 8.15181
337 1 12.4138 9.42652 8.78282 12.4138 9.42652 8.78282
338 2 14.1469 8.63546 -9.56522 14.1469 8.63546 10.4348
339 2 14.4072 9.9875 7.33473 14.4072 9.9875 7.33473
340 1 15.0528 10.8517 9.66815 15.0528 10.8517 9.66815
341 2 16.5773 10.2271 -8.50574 16.5773 10.2271 11.4943
342 2 17.1508 11.3083 8.49514 17.1508 11.3083 8.49514
343 1 17.9937 9.1913 9.63697 17.9937 9.1913 9.63697
344 2 20.4325 8.4963 -9.36558 20.4325 8.4963 10.6344
345 2 19.6906 10.1796 7.9311 19.6906 10.1796 7.9311
346 1 20.833 10.9147 9.95704 20.833 10.9147 9.95704
347 2 23.2493 10.447 -9.26102 23.2493 10.447 10.739
348 2 22.0688 11.8528 8.1087 22.0688 11.8528 8.1087
349 1 23.6467 9.81062 8.23096 23.6467 9.81062 8.23096
350 2 25.4701 9.04954 9.99646 25.4701 9.04954 9.99646
351 2 25.9088 10.0903 7.00325 25.9088 10.0903 7.00325
352 1 26.4956 11.0625 9.1718 26.4956 11.0625 9.1718
353 2 28.3725 10.2296 -9.31891 28.3725 10.2296 10.6811
354 2 28.4035 11.9244 8.07225 28.4035 11.9244 8.07225
355 1 29.3416 9.58506 8.37688 29.3416 9.58506 8.37688
356 2 31.2713 8.95967 9.73046 31.2713 8.95967 9.73046
357 2 31.3806 10.391 7.03103 31.3806 10.391 7.03103
358 1 33.1377 31.9724 -9.55417 33.1377 31.9724 -9.55417
359 2 36.556 30.6638 -8.10559 36.556 30.6638 -8.10559
360 2 35.0288 32.8895 9.49798 35.0288 32.8895 -10.502
361 1 35.8856 30.5201 9.40773 35.8856 30.5201 -10.5923
362 2 39.1237 29.1314 -8.82612 39.1237 29.1314 -8.82612
363 2 37.9714 31.4939 8.74116 37.9714 31.4939 -11.2588
364 1 38.7998 31.6035 -8.86161 38.7998 31.6035 -8.86161
365 2 40.5747 31.0555 -7.21429 40.5747 31.0555 -7.21429
366 2 40.8047 32.2146 9.75161 40.8047 32.2146 -10.2484
367 1 41.457 29.8856 -9.34249 41.457 29.8856 -9.34249
368 2 43.2759 29.4542 -7.60388 43.2759 29.4542 -7.60388
369 2 43.5014 29.5656 9.08628 43.5014 29.5656 -10.9137
370 1 44.5759 31.1266 -9.06643 44.5759 31.1266 -9.06643
371 2 46.2798 30.4036 -7.35087 46.2798 30.4036 -7.35087
372 2 46.5668 31.0454 9.37477 46.5668 31.0454 -10.6252
373 1 47.2059 29.0774 -9.28799 47.2059 29.0774 -9.28799
374 2 48.7552 28.3238 -7.52534 48.7552 28.3238 -7.52534
375 2 49.8835 32.1199 10.1172 49.8835 32.1199 -9.88277
376 1 50.2784 30.1005 -8.66617 50.2784 30.1005 -8.66617
377 2 49.245 29.2269 9.31468 49.245 29.2269 -10.6853
378 2 52.1705 30.3864 9.59595 52.1705 30.3864 -10.404
379 1 50.8978 33.1341 -7.88233 -0.512996 33.1341 -7.88233
380 2 1.06398 33.6295 -6.00291 1.06398 33.6295 -6.00291
381 2 1.69753 33.0306 -9.35571 1.69753 33.0306 -9.35571
382 1 2.92745 34.4601 -7.50023 2.92745 34.4601 -7.50023
383 2 4.77436 34.2491 -5.53718 4.77436 34.2491 -5.53718
384 2 3.47032 32.1558 -6.91561 3.47032 32.1558 -6.91561
385 1 6.55763 12.6364 9.40027 6.55763 12.6364 9.40027
386 2 7.94947 12.0709 -8.58372 7.94947 12.0709 11.4163
387 2 8.87163 12.828 8.42073 8.87163 12.828 8.42073
388 1 9.3728 14.0344 -9.43011 9.3728 14.0344 10.5699
389 2 10.5859 12.2802 -8.1405 10.5859 12.2802 11.8595
390 2 11.5208 14.4918 9.39632 11.5208 14.4918 9.39632
391 1 12.4221 12.3772 -9.73475 12.4221 12.3772 10.2653
392 2 15.217 13.0332 -9.10738 15.217 13.0332 10.8926
393 2 13.9703 12.5604 8.37337 13.9703 12.5604 8.37337
394 1 15.0976 34.7244 -8.75638 15.0976 34.7244 -8.75638
395 2 17.0806 33.9669 -7.33823 17.0806 33.9669 -7.33823
396 2 16.4771 36.5061 -9.53616 16.4771 36.5061 -9.53616
397 1 17.7615 12.3246 -9.34579 17.7615 12.3246 10.6542
398 2 19.1702 10.5422 -8.33185 19.1702 10.5422 11.6681
399 2 19.9469 13.2256 9.58225 19.9469 13.2256 9.58225
400 1 20.9166 34.1754 -7.53253 20.9166 34.1754 -7.53253
401 2 22.2597 34.9963 -5.54383 22.2597 34.9963 -5.54383
402 2 23.0667 34.8897 -8.99627 23.0667 34.8897 -8.99627
403 1 23.4991 12.73 9.94531 23.4991 12.73 9.94531
404 2 25.6068 12.3194 -8.8517 25.6068 12.3194 11.1483
405 2 24.798 12.3048 7.89529 24.798 12.3048 7.89529
406 1 27.3106 34.5192 -7.88971 27.3106 34.5192 -7.88971
407 2 31.0127 33.8469 -6.66536 31.0127 33.8469 -6.66536
408 2 29.3104 35.6096 -9.14238 29.3104 35.6096 -9.14238
409 1 30.2925 33.3482 -8.95129 30.2925 33.3482 -8.95129
410 2 33.8549 32.4475 -7.29397 33.8549 32.4475 -7.29397
411 2 32.2446 34.2298 10.0379 32.2446 34.2298 -9.96207
412 1 33.1574 34.8259 -7.67865 33.1574 34.8259 -7.67865
413 2 35.2084 34.6288 -6.00882 35.2084 34.6288 -6.00882
414 2 35.1871 35.4403 -9.26473 35.1871 35.4403 -9.26473
415 1 36.0031 33.2667 -8.10959 36.0031 33.2667 -8.10959
416 2 38.1134 32.7096 -6.67329 38.1134 32.7096 -6.67329
417 2 37.9514 33.8822 -9.78716 37.9514 33.8822 -9.78716
418 1 39.029 34.7413 -7.72027 39.029 34.7413 -7.72027
419 2 40.8452 33.9489 -6.11114 40.8452 33.9489 -6.11114
420 2 41.0554 35.0532 -9.20143 41.0554 35.0532 -9.20143
421 1 41.8208 32.9275 -8.28669 41.8208 32.9275 -8.28669
422 2 43.8953 32.2135 -6.98886 43.8953 32.2135 -6.98886
423 2 43.689 33.2466 -9.99022 43.689 33.2466 -9.99022
424 1 44.9305 34.276 -8.02114 44.9305 34.276 -8.02114
425 2 46.8401 33.3257 -6.48671 46.8401 33.3257 -6.48671
426 2 46.9249 34.5044 -9.49907 46.9249 34.5044 -9.49907
427 1 47.7102 32.2627 -8.54014 47.7102 32.2627 -8.54014
428 2 49.3479 31.4714 -6.77306 49.3479 31.4714 -6.77306
429 2 52.3182 31.0784 -7.57048 52.3182 31.0784 -7.57048
430 1 48.2951 35.2755 -7.45559 48.2951 35.2755 -7.45559
431 2 49.8949 34.3354 -5.8602 49.8949 34.3354 -5.8602
432 2 50.3739 35.3609 -8.91706 50.3739 35.3609 -8.91706
433 1 51.626 36.1123 -6.54041 0.215195 36.1123 -6.54041
434 2 2.42876 35.9213 -5.40982 2.42876 35.9213 -5.40982
435 2 1.89523 36.5432 -8.3897 1.89523 36.5432 -8.3897
436 1 3.3628 37.6922 -6.78918 3.3628 37.6922 -6.78918
437 2 5.30606 37.1327 -4.99813 5.30606 37.1327 -4.99813
438 2 5.58441 37.9546 -8.17447 5.58441 37.9546 -8.17447
439 1 6.23719 35.9072 -6.87457 6.23719 35.9072 -6.87457
440 2 8.10857 35.6792 -5.21906 8.10857 35.6792 -5.21906
441 2 9.97652 35.2301 -7.91675 9.97652 35.2301 -7.91675
442 1 9.41192 37.4062 -6.72127 9.41192 37.4062 -6.72127
443 2 11.5631 36.9652 -5.28441 11.5631 36.9652 -5.28441
444 2 11.1373 37.93 -8.46499 11.1373 37.93 -8.46499
445 1 12.2824 36.0419 -7.40685 12.2824 36.0419 -7.40685
446 2 14.6375 35.5821 -6.50757 14.6375 35.5821 -6.50757
447 2 13.7941 36.8875 -9.21474 13.7941 36.8875 -9.21474
448 1 15.3049 37.7325 -7.51542 15.3049 37.7325 -7.51542
449 2 16.9337 36.9801 -5.76713 16.9337 36.9801 -5.76713
450 2 17.6276 38.5137 -8.45397 17.6276 38.5137 -8.45397
451 1 18.2135 36.1263 -7.75856 18.2135 36.1263 -7.75856
452 2 19.5952 35.4154 -5.73497 19.5952 35.4154 -5.73497
453 2 20.5833 36.4634 -8.52105 20.5833 36.4634 -8.52105
454 1 21.2658 37.2984 -6.31485 21.2658 37.2984 -6.31485
455 2 23.5001 37.2485 -4.99609 23.5001 37.2485 -4.99609
456 2 23.0545 37.6867 -8.1686 23.0545 37.6867 -8.1686
457 1 24.2492 35.7292 -6.95579 24.2492 35.7292 -6.95579
458 2 26.5798 35.5138 -5.77739 26.5798 35.5138 -5.77739
459 2 26.0299 36.4924 -8.71128 26.0299 36.4924 -8.71128
460 1 27.1712 37.6209 -6.8121 27.1712 37.6209 -6.8121
461 2 29.0969 37.2865 -5.06835 29.0969 37.2865 -5.06835
462 2 29.0874 38.2829 -8.21102 29.0874 38.2829 -8.21102
463 1 30.2649 36.2168 -7.00121 30.2649 36.2168 -7.00121
464 2 32.252 36.009 -5.57307 32.252 36.009 -5.57307
465 2 32.0182 36.8555 -8.73935 32.0182 36.8555 -8.73935
466 1 33.0328 38.0449 -6.69769 33.0328 38.0449 -6.69769
467 2 35.2671 38.0903 -5.30121 35.2671 38.0903 -5.30121
468 2 34.7535 38.3612 -8.57772 34.7535 38.3612 -8.57772
469 1 36.2028 36.5795 -7.27754 36.2028 36.5795 -7.27754
470 2 38.3384 36.1671 -5.72577 38.3384 36.1671 -5.72577
471 2 38.2425 36.8435 -8.85519 38.2425 36.8435 -8.85519
472 1 39.4516 38.1496 -7.07041 39.4516 38.1496 -7.07041
473 2 41.4523 37.4619 -5.22619 41.4523 37.4619 -5.22619
474 2 41.356 37.944 -8.75759 41.356 37.944 -8.75759
475 1 42.1104 35.8176 -7.04181 42.1104 35.8176 -7.04181
476 2 43.9688 34.748 -5.75797 43.9688 34.748 -5.75797
477 2 43.9968 36.8649 -8.36301 43.9968 36.8649 -8.36301
478 1 41.3148 40.6353 -8.86659 41.3148 40.6353 -8.86659
479 2 44.555 38.5335 -4.95204 44.555 38.5335 -4.95204
480 2 44.0517 40.0565 -8.63371 44.0517 40.0565 -8.63371
481 1 45.4639 36.7631 -6.24289 45.4639 36.7631 -6.24289
482 2 47.6765 35.9699 -5.05438 47.6765 35.9699 -5.05438
483 2 47.0426 37.578 -8.07358 47.0426 37.578 -8.07358
484 1 48.8261 37.9893 -6.1009 48.8261 37.9893 -6.1009
485 2 50.8814 37.7242 -4.62655 50.8814 37.7242 -4.62655
486 2 50.6978 38.0711 -7.85729 50.6978 38.0711 -7.85729
487 1 52.0405 39.412 -6.06806 0.629695 39.412 -6.06806
488 2 2.50961 38.698 -4.62514 2.50961 38.698 -4.62514
489 2 2.53758 39.962 -7.58137 2.53758 39.962 -7.58137
490 1 3.57933 40.7952 -5.4361 3.57933 40.7952 -5.4361
491 2 5.44625 40.001 -4.0649 5.44625 40.001 -4.0649
492 2 5.47019 41.1814 -6.98215 5.47019 41.1814 -6.98215
493 1 6.50815 38.9961 -6.15275 6.50815 38.9961 -6.15275
494 2 8.42425 38.4307 -4.59192 8.42425 38.4307 -4.59192
495 2 8.52116 39.5734 -7.64873 8.52116 39.5734 -7.64873
496 1 9.4751 40.5426 -5.5657 9.4751 40.5426 -5.5657
497 2 11.5388 39.8518 -4.22498 11.5388 39.8518 -4.22498
498 2 11.3393 41.2777 -7.23727 11.3393 41.2777 -7.23727
499 1 12.3678 39.1232 -6.44195 12.3678 39.1232 -6.44195
500 2 14.3427 38.1761 -5.04125 14.3427 38.1761 -5.04125
501 2 14.3793 40.0868 -7.81333 14.3793 40.0868 -7.81333
502 1 15.3107 40.4911 -5.45878 15.3107 40.4911 -5.45878
503 2 17.3616 39.7436 -4.02007 17.3616 39.7436 -4.02007
504 2 17.2296 41.1092 -6.9498 17.2296 41.1092 -6.9498
505 1 18.2472 38.9725 -6.11643 18.2472 38.9725 -6.11643
506 2 20.0707 38.5204 -4.41278 20.0707 38.5204 -4.41278
507 2 20.3395 39.3993 -7.51377 20.3395 39.3993 -7.51377
508 1 21.0999 40.592 -5.52553 21.0999 40.592 -5.52553
509 2 23.0628 40.0162 -4.22366 23.0628 40.0162 -4.22366
510 2 22.8791 41.2529 -7.10701 22.8791 41.2529 -7.10701
511 1 24.1189 39.1372 -6.36035 24.1189 39.1372 -6.36035
512 2 25.9834 38.5563 -4.71164 25.9834 38.5563 -4.71164
513 2 26.0655 39.6796 -7.79659 26.0655 39.6796 -7.79659
514 1 26.897 40.7732 -5.57782 26.897 40.7732 -5.57782
515 2 29.0207 40.4038 -4.02789 29.0207 40.4038 -4.02789
516 2 28.7929 41.5083 -7.12137 28.7929 41.5083 -7.12137
517 1 29.905 39.3865 -6.13142 29.905 39.3865 -6.13142
518 2 31.9049 38.9643 -4.62746 31.9049 38.9643 -4.62746
519 2 31.8884 40.0204 -7.69545 31.8884 40.0204 -7.69545
520 1 32.7323 41.1571 -5.72636 32.7323 41.1571 -5.72636
521 2 35.0434 40.9737 -4.62908 35.0434 40.9737 -4.62908
522 2 34.2785 41.685 -7.66116 34.2785 41.685 -7.66116
523 1 35.7812 39.8738 -6.8775 35.7812 39.8738 -6.8775
524 2 37.8856 39.6687 -5.34042 37.8856 39.6687 -5.34042
525 2 36.6643 41.1586 -8.89624 36.6643 41.1586 -8.89624
526 1 38.4705 41.4803 -7.09217 38.4705 41.4803 -7.09217
527 2 40.9777 40.4709 -6.51282 40.9777 40.4709 -6.51282
528 2 38.903 39.7314 -8.94872 38.903 39.7314 -8.94872
529 1 42.9558 38.6636 -6.80721 42.9558 38.6636 -6.80721
530 2 39.3012 42.1589 -4.80339 39.3012 42.1589 -4.80339
531 2 39.9986 42.888 -8.54196 39.9986 42.888 -8.54196
532 1 43.7722 41.7382 -6.82029 43.7722 41.7382 -6.82029
533 2 45.1208 41.1486 -4.75766 45.1208 41.1486 -4.75766
534 2 46.031 42.098 -7.86028 46.031 42.098 -7.86028
535 1 46.1673 39.7952 -6.6054 46.1673 39.7952 -6.6054
536 2 47.7587 39.5062 -4.51591 47.7587 39.5062 -4.51591
537 2 48.4133 39.8531 -7.74259 48.4133 39.8531 -7.74259
538 1 49.1606 41.1842 -5.65511 49.1606 41.1842 -5.65511
539 2 50.9712 40.558 -4.03232 50.9712 40.558 -4.03232
540 2 51.2158 41.7039 -7.16595 51.2158 41.7039 -7.16595
541 1 0.787835 42.5407 -5.01512 0.787835 42.5407 -5.01512
542 2 2.70206 41.9674 -3.419 2.70206 41.9674 -3.419
543 2 2.81586 43.0311 -6.51918 2.81586 43.0311 -6.51918
544 1 3.76584 43.8945 -4.51939 3.76584 43.8945 -4.51939