ITEM: TIMESTEP
2889000
ITEM: NUMBER OF ATOMS
810
ITEM: BOX BOUNDS pp pp pp
8.0341777045796159e-01 5.2214187229542503e+01
-6.3306708502377438e+00 5.7346885850236610e+01
-1.0000000000000000e+01 1.0000000000000000e+01
ITEM: ATOMS id type x y z xu yu zu
1 1 1.00015 56.677 0.250864 1.00015 -7.00052 0.250864
2 2 2.82308 56.145 1.92828 2.82308 -7.53251 1.92828
3 2 2.84531 57.3679 -1.17899 2.84531 -6.30969 -1.17899
4 1 3.83021 -5.50477 1.06943 3.83021 -5.50477 1.06943
5 2 5.69337 -6.08906 2.65589 5.69337 -6.08906 2.65589
6 2 5.84576 -5.04236 -0.474599 5.84576 -5.04236 -0.474599
7 1 6.81552 56.5172 0.66563 6.81552 -7.16035 0.66563
8 2 8.56648 56.0125 2.32405 8.56648 -7.66506 2.32405
9 2 8.84901 57.0032 -0.79432 8.84901 -6.67435 -0.79432
10 1 9.61517 -5.66048 1.28204 9.61517 -5.66048 1.28204
11 2 11.4257 -6.32253 2.94908 11.4257 -6.32253 2.94908
12 2 11.6627 -5.33836 -0.119391 11.6627 -5.33836 -0.119391
13 1 12.512 56.357 1.03893 12.512 -7.32057 1.03893
14 2 14.3228 55.8303 2.7524 14.3228 -7.84728 2.7524
15 2 14.5565 56.958 -0.316342 14.5565 -6.7196 -0.316342
16 1 15.4012 -5.84126 2.01017 15.4012 -5.84126 2.01017
17 2 17.4748 -6.30662 3.42251 17.4748 -6.30662 3.42251
18 2 17.0921 -5.43831 0.206401 17.0921 -5.43831 0.206401
19 1 18.1516 56.217 1.30505 18.1516 -7.46059 1.30505
20 2 20.2053 55.675 2.77953 20.2053 -8.00257 2.77953
21 2 19.9607 56.8388 -0.240174 19.9607 -6.83875 -0.240174
22 1 21.064 -5.77733 1.80882 21.064 -5.77733 1.80882
23 2 23.0112 -6.11796 3.36257 23.0112 -6.11796 3.36257
24 2 22.9114 -5.35841 0.172156 22.9114 -5.35841 0.172156
25 1 23.8317 56.322 1.31419 23.8317 -7.35554 1.31419
26 2 25.9894 55.8145 2.59675 25.9894 -7.86308 2.59675
27 2 25.4757 57.0797 -0.359872 25.4757 -6.59784 -0.359872
28 1 26.7358 -5.59134 1.55644 26.7358 -5.59134 1.55644
29 2 28.7429 -5.96153 3.02897 28.7429 -5.96153 3.02897
30 2 28.5333 -5.18144 -0.0971458 28.5333 -5.18144 -0.0971458
31 1 29.5676 56.5078 1.04757 29.5676 -7.16972 1.04757
32 2 31.7138 56.0808 2.39238 31.7138 -7.59675 2.39238
33 2 31.364 57.3462 -0.640059 31.364 -6.33132 -0.640059
34 1 32.5527 -5.483 1.32597 32.5527 -5.483 1.32597
35 2 34.6051 -5.74703 2.67749 34.6051 -5.74703 2.67749
36 2 34.3046 -4.91631 -0.529572 34.3046 -4.91631 -0.529572
37 1 35.363 56.7119 0.450624 35.363 -6.96563 0.450624
38 2 37.4327 56.3134 1.75937 37.4327 -7.36414 1.75937
39 2 37.0286 -6.3105 -1.33009 37.0286 -6.3105 -1.33009
40 1 38.2808 -5.24447 0.684312 38.2808 -5.24447 0.684312
41 2 40.2064 -5.75191 2.06094 40.2064 -5.75191 2.06094
42 2 40.0691 -4.65196 -1.03781 40.0691 -4.65196 -1.03781
43 1 41.0247 56.9824 -0.158034 41.0247 -6.6952 -0.158034
44 2 42.9683 56.3791 1.35153 42.9683 -7.2985 1.35153
45 2 42.9631 -5.93121 -1.64283 42.9631 -5.93121 -1.64283
46 1 43.932 -5.12765 0.483576 43.932 -5.12765 0.483576
47 2 45.6397 -5.82728 2.01016 45.6397 -5.82728 2.01016
48 2 46.1093 -4.56498 -0.800191 46.1093 -4.56498 -0.800191
49 1 46.8049 56.8915 0.00119677 46.8049 -6.78601 0.00119677
50 2 48.5552 56.2796 1.57327 48.5552 -7.39798 1.57327
51 2 48.8006 -6.34397 -1.3488 48.8006 -6.34397 -1.3488
52 1 49.6512 -5.4153 0.762772 49.6512 -5.4153 0.762772
53 2 51.409 -6.09803 2.34423 51.409 -6.09803 2.34423
54 2 51.6129 -4.74318 -0.577805 51.6129 -4.74318 -0.577805
55 1 1.07504 -4.01843 1.61583 1.07504 -4.01843 1.61583
56 2 3.04395 -4.48231 3.20566 3.04395 -4.48231 3.20566
57 2 2.90894 -3.43146 0.110251 2.90894 -3.43146 0.110251
58 1 4.01101 -2.48731 2.18865 4.01101 -2.48731 2.18865
59 2 5.70757 -3.24905 3.7183 5.70757 -3.24905 3.7183
60 2 6.03974 -1.77366 0.747271 6.03974 -1.77366 0.747271
61 1 6.72843 -4.06576 1.63645 6.72843 -4.06576 1.63645
62 2 8.49382 -4.6519 3.35533 8.49382 -4.6519 3.35533
63 2 8.76514 -3.43314 0.379135 8.76514 -3.43314 0.379135
64 1 9.67627 -2.53344 2.55024 9.67627 -2.53344 2.55024
65 2 11.5449 -3.1471 4.14299 11.5449 -3.1471 4.14299
66 2 11.5643 -2.04709 1.11006 11.5643 -2.04709 1.11006
67 1 12.4562 -4.18814 2.03868 12.4562 -4.18814 2.03868
68 2 14.3873 -4.3814 3.82622 14.3873 -4.3814 3.82622
69 2 14.5937 -3.95926 0.560395 14.5937 -3.95926 0.560395
70 1 15.3139 -2.57478 2.48637 15.3139 -2.57478 2.48637
71 2 17.1491 -3.06254 4.11797 17.1491 -3.06254 4.11797
72 2 17.2531 -2.14129 1.03026 17.2531 -2.14129 1.03026
73 1 18.2075 -4.22856 2.16858 18.2075 -4.22856 2.16858
74 2 20.1455 -4.59511 3.76682 20.1455 -4.59511 3.76682
75 2 20.0451 -3.81182 0.605 20.0451 -3.81182 0.605
76 1 20.9741 -2.56586 2.62311 20.9741 -2.56586 2.62311
77 2 22.9523 -2.9299 4.15976 22.9523 -2.9299 4.15976
78 2 22.7849 -2.24571 1.00429 22.7849 -2.24571 1.00429
79 1 23.8971 -4.18234 2.16823 23.8971 -4.18234 2.16823
80 2 25.8569 -4.52936 3.60609 25.8569 -4.52936 3.60609
81 2 25.6881 -3.66896 0.474411 25.6881 -3.66896 0.474411
82 1 26.8125 -2.54284 2.38799 26.8125 -2.54284 2.38799
83 2 28.8053 -3.00468 3.90363 28.8053 -3.00468 3.90363
84 2 28.6559 -1.95758 0.825505 28.6559 -1.95758 0.825505
85 1 29.7018 -3.98791 1.78903 29.7018 -3.98791 1.78903
86 2 31.6366 -4.31985 3.34695 31.6366 -4.31985 3.34695
87 2 31.6785 -3.37244 0.195308 31.6785 -3.37244 0.195308
88 1 32.6075 -2.31698 2.27784 32.6075 -2.31698 2.27784
89 2 34.7226 -2.62112 3.55007 34.7226 -2.62112 3.55007
90 2 34.2556 -1.8178 0.477069 34.2556 -1.8178 0.477069
91 1 35.3773 -3.80627 1.40548 35.3773 -3.80627 1.40548
92 2 37.399 -4.18766 2.79501 37.399 -4.18766 2.79501
93 2 37.1127 -3.30175 -0.334486 37.1127 -3.30175 -0.334486
94 1 38.1236 -2.08094 1.63591 38.1236 -2.08094 1.63591
95 2 39.995 -2.59094 3.13451 39.995 -2.59094 3.13451
96 2 40.0528 -1.51605 0.0576972 40.0528 -1.51605 0.0576972
97 1 41.0133 -3.63741 1.03229 41.0133 -3.63741 1.03229
98 2 42.8199 -4.16904 2.64658 42.8199 -4.16904 2.64658
99 2 42.9898 -2.98802 -0.390753 42.9898 -2.98802 -0.390753
100 1 43.8636 -2.17733 1.7411 43.8636 -2.17733 1.7411
101 2 45.4845 -2.90215 3.38373 45.4845 -2.90215 3.38373
102 2 45.8652 -1.62964 0.391726 45.8652 -1.62964 0.391726
103 1 46.7971 -3.7229 1.32387 46.7971 -3.7229 1.32387
104 2 48.4619 -4.63536 2.90998 48.4619 -4.63536 2.90998
105 2 48.6982 -3.2941 -0.154972 48.6982 -3.2941 -0.154972
106 1 49.537 -2.47507 2.16234 49.537 -2.47507 2.16234
107 2 51.379 -3.02195 3.71929 51.379 -3.02195 3.71929
108 2 51.5013 -1.85328 0.655196 51.5013 -1.85328 0.655196
109 1 1.10759 -0.930672 2.73486 1.10759 -0.930672 2.73486
110 2 3.04055 -1.43294 4.32057 3.04055 -1.43294 4.32057
111 2 3.22164 -0.231192 1.30531 3.22164 -0.231192 1.30531
112 1 3.96762 0.610071 3.46803 3.96762 0.610071 3.46803
113 2 5.79792 -0.0803347 5.02761 5.79792 -0.0803347 5.02761
114 2 5.92358 1.16514 2.07286 5.92358 1.16514 2.07286
115 1 6.81905 -1.04998 2.98884 6.81905 -1.04998 2.98884
116 2 8.70801 -1.5592 4.61826 8.70801 -1.5592 4.61826
117 2 8.79011 -0.436811 1.53482 8.79011 -0.436811 1.53482
118 1 9.56015 0.570161 3.7092 9.56015 0.570161 3.7092
119 2 11.4635 0.133047 5.20503 11.4635 0.133047 5.20503
120 2 11.453 1.1456 2.11359 11.453 1.1456 2.11359
121 1 12.393 -0.986484 3.21124 12.393 -0.986484 3.21124
122 2 14.4325 -1.5101 4.64169 14.4325 -1.5101 4.64169
123 2 14.2331 -0.433587 1.58836 14.2331 -0.433587 1.58836
124 1 15.3685 0.567326 3.57238 15.3685 0.567326 3.57238
125 2 17.3536 0.13993 5.13891 17.3536 0.13993 5.13891
126 2 17.1768 0.986054 1.88399 17.1768 0.986054 1.88399
127 1 18.2736 -0.979824 3.10416 18.2736 -0.979824 3.10416
128 2 20.1165 -1.30856 4.59557 20.1165 -1.30856 4.59557
129 2 20.0911 -0.488933 1.34736 20.0911 -0.488933 1.34736
130 1 21.0289 0.65867 3.34432 21.0289 0.65867 3.34432
131 2 23.0146 0.264152 4.81634 23.0146 0.264152 4.81634
132 2 22.9809 0.8636 1.60952 22.9809 0.8636 1.60952
133 1 23.8623 -0.988901 2.88646 23.8623 -0.988901 2.88646
134 2 25.8913 -1.35836 4.47218 25.8913 -1.35836 4.47218
135 2 25.7888 -0.56588 1.27343 25.7888 -0.56588 1.27343
136 1 26.7834 0.600936 3.19014 26.7834 0.600936 3.19014
137 2 28.7321 0.280677 4.74417 28.7321 0.280677 4.74417
138 2 28.7182 1.04064 1.62796 28.7182 1.04064 1.62796
139 1 29.7464 -0.860064 2.81637 29.7464 -0.860064 2.81637
140 2 31.8214 -1.14279 4.20198 31.8214 -1.14279 4.20198
141 2 31.4422 -0.519732 1.027 31.4422 -0.519732 1.027
142 1 32.5067 0.864749 2.81708 32.5067 0.864749 2.81708
143 2 34.4137 0.50574 4.34619 34.4137 0.50574 4.34619
144 2 34.2493 1.34124 1.14607 34.2493 1.34124 1.14607
145 1 35.3739 -0.551289 2.30337 35.3739 -0.551289 2.30337
146 2 37.3409 -1.15094 3.79019 37.3409 -1.15094 3.79019
147 2 37.243 -0.025186 0.710273 37.243 -0.025186 0.710273
148 1 38.1742 1.08359 2.78845 38.1742 1.08359 2.78845
149 2 40.0777 0.579755 4.24771 40.0777 0.579755 4.24771
150 2 40.0059 1.61088 1.17672 40.0059 1.61088 1.17672
151 1 41.0048 -0.548708 2.15794 41.0048 -0.548708 2.15794
152 2 42.833 -1.12227 3.74074 42.833 -1.12227 3.74074
153 2 43.0259 -0.151726 0.646344 43.0259 -0.151726 0.646344
154 1 43.8264 0.834408 2.73906 43.8264 0.834408 2.73906
155 2 45.6984 0.311897 4.57692 45.6984 0.311897 4.57692
156 2 45.8932 1.24875 1.32487 45.8932 1.24875 1.32487
157 1 46.7299 -0.786274 2.62267 46.7299 -0.786274 2.62267
158 2 48.6268 -1.45571 4.23907 48.6268 -1.45571 4.23907
159 2 48.7603 -0.375363 1.08478 48.7603 -0.375363 1.08478
160 1 49.633 0.57646 3.2526 49.633 0.57646 3.2526
161 2 51.5162 -0.0365869 4.82252 51.5162 -0.0365869 4.82252
162 2 51.5069 1.2882 1.73719 51.5069 1.2882 1.73719
163 1 1.0156 2.14644 3.85333 1.0156 2.14644 3.85333
164 2 2.99256 1.8056 5.42948 2.99256 1.8056 5.42948
165 2 2.99838 2.62267 2.34977 2.99838 2.62267 2.34977
166 1 3.87793 3.73726 4.23252 3.87793 3.73726 4.23252
167 2 5.6183 3.25419 6.02709 5.6183 3.25419 6.02709
168 2 5.92957 4.23802 2.90068 5.92957 4.23802 2.90068
169 1 6.74901 2.19955 4.13234 6.74901 2.19955 4.13234
170 2 8.60997 1.74965 5.72097 8.60997 1.74965 5.72097
171 2 8.62555 2.50872 2.59575 8.62555 2.50872 2.59575
172 1 9.45155 3.7797 4.61483 9.45155 3.7797 4.61483
173 2 11.3093 3.16215 6.30524 11.3093 3.16215 6.30524
174 2 11.5325 4.28577 3.14882 11.5325 4.28577 3.14882
175 1 12.3647 2.15927 4.15807 12.3647 2.15927 4.15807
176 2 14.2764 1.69781 5.74465 14.2764 1.69781 5.74465
177 2 14.3223 2.7574 2.64379 14.3223 2.7574 2.64379
178 1 15.2214 3.74836 4.69522 15.2214 3.74836 4.69522
179 2 17.354 3.37758 5.9604 17.354 3.37758 5.9604
180 2 16.9604 4.25626 2.92853 16.9604 4.25626 2.92853
181 1 18.0931 2.20541 3.88787 18.0931 2.20541 3.88787
182 2 20.0517 1.8149 5.40475 20.0517 1.8149 5.40475
183 2 19.9744 2.6775 2.19273 19.9744 2.6775 2.19273
184 1 21.0498 3.82079 4.19261 21.0498 3.82079 4.19261
185 2 22.9131 3.26967 5.61863 22.9131 3.26967 5.61863
186 2 22.9333 4.27227 2.36104 22.9333 4.27227 2.36104
187 1 23.8355 2.21194 3.50411 23.8355 2.21194 3.50411
188 2 25.6871 1.85484 5.05257 25.6871 1.85484 5.05257
189 2 25.821 2.50307 1.92299 25.821 2.50307 1.92299
190 1 26.6875 3.80207 3.85492 26.6875 3.80207 3.85492
191 2 28.4606 3.42373 5.6045 28.4606 3.42373 5.6045
192 2 28.7321 4.21413 2.41118 28.7321 4.21413 2.41118
193 1 29.633 2.26729 3.66616 29.633 2.26729 3.66616
194 2 31.6372 1.83081 5.07495 31.6372 1.83081 5.07495
195 2 31.3587 3.01622 1.95442 31.3587 3.01622 1.95442
196 1 32.4002 3.98761 4.00477 32.4002 3.98761 4.00477
197 2 34.432 3.51852 5.41019 34.432 3.51852 5.41019
198 2 34.2011 4.49897 2.22804 34.2011 4.49897 2.22804
199 1 35.2944 2.59642 3.29637 35.2944 2.59642 3.29637
200 2 37.1333 2.11693 4.78353 37.1333 2.11693 4.78353
201 2 37.1957 3.10035 1.75785 37.1957 3.10035 1.75785
202 1 38.0819 4.09055 3.7564 38.0819 4.09055 3.7564
203 2 40.0538 3.59838 5.27339 40.0538 3.59838 5.27339
204 2 40.0482 4.71649 2.3061 40.0482 4.71649 2.3061
205 1 40.9781 2.65172 3.21662 40.9781 2.65172 3.21662
206 2 42.8551 2.03719 4.77242 42.8551 2.03719 4.77242
207 2 42.8436 2.97671 1.60296 42.8436 2.97671 1.60296
208 1 43.8549 3.99343 3.64439 43.8549 3.99343 3.64439
209 2 45.5958 3.39463 5.34228 45.5958 3.39463 5.34228
210 2 46.0175 4.51513 2.37097 46.0175 4.51513 2.37097
211 1 46.7495 2.39044 3.34094 46.7495 2.39044 3.34094
212 2 48.4722 1.86329 5.18427 48.4722 1.86329 5.18427
213 2 48.8457 2.73129 2.11429 48.8457 2.73129 2.11429
214 1 49.6527 3.77519 4.22773 49.6527 3.77519 4.22773
215 2 51.682 3.41782 5.78642 51.682 3.41782 5.78642
216 2 51.5958 4.09547 2.60422 51.5958 4.09547 2.60422
217 1 1.17549 5.31094 4.54232 1.17549 5.31094 4.54232
218 2 2.98983 4.80035 6.20414 2.98983 4.80035 6.20414
219 2 3.10288 5.81353 3.17963 3.10288 5.81353 3.17963
220 1 3.8428 6.94653 5.34446 3.8428 6.94653 5.34446
221 2 5.72965 6.54174 6.96741 5.72965 6.54174 6.96741
222 2 5.75077 7.3895 3.87253 5.75077 7.3895 3.87253
223 1 6.5933 5.34608 5.01762 6.5933 5.34608 5.01762
224 2 8.49449 4.85069 6.67335 8.49449 4.85069 6.67335
225 2 8.5393 5.8236 3.58856 8.5393 5.8236 3.58856
226 1 9.4669 6.91279 5.75128 9.4669 6.91279 5.75128
227 2 11.2673 6.43767 7.4534 11.2673 6.43767 7.4534
228 2 11.422 7.20325 4.26286 11.422 7.20325 4.26286
229 1 12.3934 5.18468 5.42642 12.3934 5.18468 5.42642
230 2 14.3298 4.74084 6.83794 14.3298 4.74084 6.83794
231 2 14.0815 5.82347 3.76822 14.0815 5.82347 3.76822
232 1 15.2963 6.8684 5.66981 15.2963 6.8684 5.66981
233 2 17.3811 6.32498 7.02387 17.3811 6.32498 7.02387
234 2 17.0854 7.58857 4.02744 17.0854 7.58857 4.02744
235 1 18.1411 5.40613 4.7648 18.1411 5.40613 4.7648
236 2 20.1454 5.00262 6.18092 20.1454 5.00262 6.18092
237 2 19.9262 5.70131 2.96178 19.9262 5.70131 2.96178
238 1 20.9368 7.10692 4.82466 20.9368 7.10692 4.82466
239 2 22.8359 6.64923 6.41674 22.8359 6.64923 6.41674
240 2 22.8708 7.56868 3.29713 22.8708 7.56868 3.29713
241 1 23.7201 5.30734 4.42208 23.7201 5.30734 4.42208
242 2 25.7099 5.07121 5.89874 25.7099 5.07121 5.89874
243 2 25.4989 5.71289 2.77056 25.4989 5.71289 2.77056
244 1 26.52 7.04277 4.64621 26.52 7.04277 4.64621
245 2 28.3097 6.70756 6.47861 28.3097 6.70756 6.47861
246 2 28.6008 7.33696 3.16199 28.6008 7.33696 3.16199
247 1 29.4721 5.41073 4.45262 29.4721 5.41073 4.45262
248 2 31.4384 5.03976 6.0372 31.4384 5.03976 6.0372
249 2 31.4177 6.02256 2.96261 31.4177 6.02256 2.96261
250 1 32.3069 7.1296 4.97103 32.3069 7.1296 4.97103
251 2 34.418 6.62659 6.35107 34.418 6.62659 6.35107
252 2 33.9803 7.53791 3.2341 33.9803 7.53791 3.2341
253 1 35.2293 5.62017 4.27088 35.2293 5.62017 4.27088
254 2 37.3479 5.21255 5.79649 37.3479 5.21255 5.79649
255 2 37.1338 6.02365 2.68465 37.1338 6.02365 2.68465
256 1 38.0995 7.20855 4.58691 38.0995 7.20855 4.58691
257 2 41.6671 7.99626 5.2757 41.6671 7.99626 5.2757
258 2 40.0242 7.62102 3.0141 40.0242 7.62102 3.0141
259 1 41.0732 5.7553 4.42254 41.0732 5.7553 4.42254
260 2 43.1221 5.2459 5.78215 43.1221 5.2459 5.78215
261 2 42.8291 6.09276 2.63517 42.8291 6.09276 2.63517
262 1 44.0276 7.1966 4.5427 44.0276 7.1966 4.5427
263 2 45.8271 6.92546 6.36031 45.8271 6.92546 6.36031
264 2 46.1477 7.45309 3.1696 46.1477 7.45309 3.1696
265 1 46.795 5.48256 4.48869 46.795 5.48256 4.48869
266 2 48.7662 5.03589 6.12801 48.7662 5.03589 6.12801
267 2 48.7625 5.71164 2.90904 48.7625 5.71164 2.90904
268 1 49.6782 7.10074 4.82172 49.6782 7.10074 4.82172
269 2 51.583 6.51085 6.43877 51.583 6.51085 6.43877
270 2 51.5855 7.45266 3.31702 51.5855 7.45266 3.31702
271 1 1.07878 8.61906 5.32658 1.07878 8.61906 5.32658
272 2 2.87104 8.14319 7.15952 2.87104 8.14319 7.15952
273 2 3.06898 8.95336 4.07067 3.06898 8.95336 4.07067
274 1 3.72989 10.2118 6.07903 3.72989 10.2118 6.07903
275 2 5.51595 9.81902 7.73036 5.51595 9.81902 7.73036
276 2 5.73693 10.5743 4.63919 5.73693 10.5743 4.63919
277 1 6.69721 8.56056 5.90993 6.69721 8.56056 5.90993
278 2 8.51215 8.10591 7.69534 8.51215 8.10591 7.69534
279 2 8.60119 8.85251 4.41066 8.60119 8.85251 4.41066
280 1 9.45041 10.0938 6.47303 9.45041 10.0938 6.47303
281 2 11.3113 9.55231 8.051 11.3113 9.55231 8.051
282 2 11.3116 10.2282 4.89581 11.3116 10.2282 4.89581
283 1 12.3258 8.37363 6.29323 12.3258 8.37363 6.29323
284 2 14.3413 8.04093 7.86864 14.3413 8.04093 7.86864
285 2 14.3063 8.9631 4.6434 14.3063 8.9631 4.6434
286 1 15.258 10.0037 6.70799 15.258 10.0037 6.70799
287 2 17.1014 9.3652 8.31634 17.1014 9.3652 8.31634
288 2 17.2456 10.7513 5.36137 17.2456 10.7513 5.36137
289 1 18.0836 8.54133 6.0814 18.0836 8.54133 6.0814
290 2 20.2676 8.00748 7.10642 20.2676 8.00748 7.10642
291 2 19.7314 9.18236 4.10735 19.7314 9.18236 4.10735
292 1 20.9557 10.1957 6.1044 20.9557 10.1957 6.1044
293 2 23.1004 9.91676 7.38761 23.1004 9.91676 7.38761
294 2 22.6687 10.5769 4.14475 22.6687 10.5769 4.14475
295 1 23.8136 8.64077 5.27187 23.8136 8.64077 5.27187
296 2 25.5645 8.01486 6.80875 25.5645 8.01486 6.80875
297 2 25.541 9.1873 3.61779 25.541 9.1873 3.61779
298 1 26.5733 10.145 5.75522 26.5733 10.145 5.75522
299 2 28.5118 9.65659 7.29227 28.5118 9.65659 7.29227
300 2 28.4827 10.5939 4.12936 28.4827 10.5939 4.12936
301 1 29.4125 8.55769 5.27775 29.4125 8.55769 5.27775
302 2 31.524 8.50775 6.91219 31.524 8.50775 6.91219
303 2 31.2265 9.01331 3.60763 31.2265 9.01331 3.60763
304 1 32.2299 10.4292 5.48078 32.2299 10.4292 5.48078
305 2 34.4682 10.3125 6.8234 34.4682 10.3125 6.8234
306 2 34.189 10.5967 3.90793 34.189 10.5967 3.90793
307 1 35.0613 8.65029 5.14244 35.0613 8.65029 5.14244
308 2 37.2048 8.96872 6.25229 37.2048 8.96872 6.25229
309 2 36.6649 8.83835 3.21858 36.6649 8.83835 3.21858
310 1 38.4847 26.6382 -7.84915 38.4847 26.6382 -7.84915
311 2 39.2022 24.4112 -7.1934 39.2022 24.4112 -7.1934
312 2 40.6513 27.3463 -8.69567 40.6513 27.3463 -8.69567
313 1 41.4603 25.0793 -8.15721 41.4603 25.0793 -8.15721
314 2 41.4184 25.3017 -5.64316 41.4184 25.3017 -5.64316
315 2 43.3641 23.7341 -7.37709 43.3641 23.7341 -7.37709
316 1 43.9132 25.7138 -5.91393 43.9132 25.7138 -5.91393
317 2 45.9769 24.8464 -4.80767 45.9769 24.8464 -4.80767
318 2 45.7397 25.7938 -7.59214 45.7397 25.7938 -7.59214
319 1 46.7789 8.78386 5.20735 46.7789 8.78386 5.20735
320 2 48.6402 8.2788 6.70987 48.6402 8.2788 6.70987
321 2 48.7984 9.05815 3.57285 48.7984 9.05815 3.57285
322 1 49.5256 10.3265 5.5732 49.5256 10.3265 5.5732
323 2 51.475 10.0279 7.26718 51.475 10.0279 7.26718
324 2 51.5774 10.588 4.06462 51.5774 10.588 4.06462
325 1 0.942734 12.0724 5.90694 0.942734 12.0724 5.90694
326 2 2.67788 11.7552 7.70646 2.67788 11.7552 7.70646
327 2 3.13793 12.0641 4.53101 3.13793 12.0641 4.53101
328 1 3.84284 13.5697 6.3233 3.84284 13.5697 6.3233
329 2 5.35286 13.3292 8.25499 5.35286 13.3292 8.25499
330 2 5.91183 13.5351 5.02787 5.91183 13.5351 5.02787
331 1 6.50121 11.7694 6.67646 6.50121 11.7694 6.67646
332 2 8.14871 11.1456 8.50474 8.14871 11.1456 8.50474
333 2 8.59911 12.199 5.40803 8.59911 12.199 5.40803
334 1 9.37294 13.2273 7.64106 9.37294 13.2273 7.64106
335 2 11.6638 12.687 8.90843 11.6638 12.687 8.90843
336 2 11.143 13.5182 5.75626 11.143 13.5182 5.75626
337 1 12.2575 11.5384 6.83534 12.2575 11.5384 6.83534
338 2 14.2715 11.248 8.61839 14.2715 11.248 8.61839
339 2 14.3543 11.9682 5.30005 14.3543 11.9682 5.30005
340 1 15.1863 13.1365 7.27672 15.1863 13.1365 7.27672
341 2 16.5077 12.7343 9.29895 16.5077 12.7343 9.29895
342 2 17.4675 13.656 6.47974 17.4675 13.656 6.47974
343 1 18.0947 11.544 7.68082 18.0947 11.544 7.68082
344 2 20.4923 10.6913 8.50395 20.4923 10.6913 8.50395
345 2 19.6794 12.3145 5.66899 19.6794 12.3145 5.66899
346 1 20.9726 13.0991 7.65907 20.9726 13.0991 7.65907
347 2 23.4362 13.0073 8.29542 23.4362 13.0073 8.29542
348 2 22.101 13.9809 5.63796 22.101 13.9809 5.63796
349 1 23.8428 12.0022 5.94801 23.8428 12.0022 5.94801
350 2 25.5776 11.3965 7.72601 25.5776 11.3965 7.72601
351 2 26.0548 12.1643 4.46862 26.0548 12.1643 4.46862
352 1 26.5651 13.3593 6.66662 26.5651 13.3593 6.66662
353 2 28.294 12.4468 8.22988 28.294 12.4468 8.22988
354 2 28.6924 14.2355 5.75848 28.6924 14.2355 5.75848
355 1 29.3204 11.7625 6.151 29.3204 11.7625 6.151
356 2 31.4829 11.5187 7.51962 31.4829 11.5187 7.51962
357 2 31.1484 12.443 4.68333 31.1484 12.443 4.68333
358 1 33.0106 29.6071 -6.59893 33.0106 29.6071 -6.59893
359 2 36.4171 28.978 -4.99663 36.4171 28.978 -4.99663
360 2 35.0105 30.2595 -7.86048 35.0105 30.2595 -7.86048
361 1 35.6979 28.0955 -7.19951 35.6979 28.0955 -7.19951
362 2 39.016 27.0791 -5.54896 39.016 27.0791 -5.54896
363 2 37.674 28.8682 -8.35799 37.674 28.8682 -8.35799
364 1 38.6455 29.561 -6.06787 38.6455 29.561 -6.06787
365 2 40.4616 29.1288 -4.36476 40.4616 29.1288 -4.36476
366 2 40.7853 29.9239 -7.53126 40.7853 29.9239 -7.53126
367 1 41.261 27.7309 -6.28179 41.261 27.7309 -6.28179
368 2 43.0065 27.5567 -4.37158 43.0065 27.5567 -4.37158
369 2 43.2612 27.3034 -7.73194 43.2612 27.3034 -7.73194
370 1 44.4047 28.9042 -5.80934 44.4047 28.9042 -5.80934
371 2 46.1453 28.623 -4.07124 46.1453 28.623 -4.07124
372 2 46.301 28.6483 -7.40927 46.301 28.6483 -7.40927
373 1 46.9545 26.9322 -5.74934 46.9545 26.9322 -5.74934
374 2 48.948 25.8848 -4.44454 48.948 25.8848 -4.44454
375 2 49.3721 29.6166 -7.18234 49.3721 29.6166 -7.18234
376 1 49.9806 27.9213 -5.39729 49.9806 27.9213 -5.39729
377 2 48.9363 26.7451 -7.35228 48.9363 26.7451 -7.35228
378 2 51.666 28.2302 -7.03182 51.666 28.2302 -7.03182
379 1 50.6389 31.1958 -5.46894 -0.77189 31.1958 -5.46894
380 2 52.172 31.8925 -3.41407 0.761198 31.8925 -3.41407
381 2 1.52247 30.6622 -6.60944 1.52247 30.6622 -6.60944
382 1 2.64568 32.4314 -5.09806 2.64568 32.4314 -5.09806
383 2 4.63838 32.3948 -3.18385 4.63838 32.3948 -3.18385
384 2 3.03172 30.272 -3.94661 3.03172 30.272 -3.94661
385 1 6.58632 15.09 6.74552 6.58632 15.09 6.74552
386 2 7.76436 14.8368 8.90812 7.76436 14.8368 8.90812
387 2 8.99635 15.0149 5.91582 8.99635 15.0149 5.91582
388 1 9.37641 16.5935 7.81599 9.37641 16.5935 7.81599
389 2 10.6083 14.9777 9.1714 10.6083 14.9777 9.1714
390 2 11.4915 17.0107 6.60792 11.4915 17.0107 6.60792
391 1 12.2581 14.8311 7.44179 12.2581 14.8311 7.44179
392 2 13.9882 14.5089 9.14366 13.9882 14.5089 9.14366
393 2 14.3418 15.1194 5.99915 14.3418 15.1194 5.99915
394 1 15.0318 32.6559 -5.67398 15.0318 32.6559 -5.67398
395 2 17.1597 32.3479 -4.20088 17.1597 32.3479 -4.20088
396 2 16.2271 34.2054 -7.18786 16.2271 34.2054 -7.18786
397 1 17.903 14.6903 8.5919 17.903 14.6903 8.5919
398 2 19.2024 12.8265 9.52349 19.2024 12.8265 9.52349
399 2 19.9373 15.4191 7.30071 19.9373 15.4191 7.30071
400 1 21.0861 32.5878 -5.68862 21.0861 32.5878 -5.68862
401 2 22.7492 32.4969 -3.82366 22.7492 32.4969 -3.82366
402 2 22.9575 33.178 -7.22943 22.9575 33.178 -7.22943
403 1 23.5448 15.1505 7.23807 23.5448 15.1505 7.23807
404 2 25.7939 14.8602 8.5258 25.7939 14.8602 8.5258
405 2 24.7537 14.4062 5.26166 24.7537 14.4062 5.26166
406 1 27.1535 32.4475 -5.4738 27.1535 32.4475 -5.4738
407 2 30.8656 32.0762 -3.90278 30.8656 32.0762 -3.90278
408 2 29.179 33.0849 -6.84379 29.179 33.0849 -6.84379
409 1 30.1086 30.9932 -5.97301 30.1086 30.9932 -5.97301
410 2 33.8584 30.5346 -4.43851 33.8584 30.5346 -4.43851
411 2 32.1276 31.7376 -7.25815 32.1276 31.7376 -7.25815
412 1 33.0706 32.8036 -5.11553 33.0706 32.8036 -5.11553
413 2 35.3054 32.8148 -3.73362 35.3054 32.8148 -3.73362
414 2 34.671 33.0938 -6.97845 34.671 33.0938 -6.97845
415 1 35.9004 31.2989 -5.67368 35.9004 31.2989 -5.67368
416 2 37.9205 31.0565 -4.10674 37.9205 31.0565 -4.10674
417 2 37.8072 31.5887 -7.35442 37.8072 31.5887 -7.35442
418 1 38.9302 32.841 -5.52082 38.9302 32.841 -5.52082
419 2 40.8821 32.1942 -3.75438 40.8821 32.1942 -3.75438
420 2 40.9957 32.8594 -7.05561 40.9957 32.8594 -7.05561
421 1 41.7122 30.8648 -5.58474 41.7122 30.8648 -5.58474
422 2 43.6569 30.6714 -4.03249 43.6569 30.6714 -4.03249
423 2 43.589 30.6187 -7.27749 43.589 30.6187 -7.27749
424 1 44.7567 32.2701 -5.64968 44.7567 32.2701 -5.64968
425 2 46.5152 31.6977 -3.92737 46.5152 31.6977 -3.92737
426 2 46.8551 32.0313 -7.16883 46.8551 32.0313 -7.16883
427 1 47.4491 30.1469 -5.60739 47.4491 30.1469 -5.60739
428 2 49.2221 29.7183 -3.85163 49.2221 29.7183 -3.85163
429 2 51.9053 29.1487 -4.48888 51.9053 29.1487 -4.48888
430 1 47.9912 33.3617 -5.35208 47.9912 33.3617 -5.35208
431 2 49.5571 32.5177 -3.52036 49.5571 32.5177 -3.52036
432 2 50.2526 33.3468 -6.54831 50.2526 33.3468 -6.54831
433 1 51.3608 34.3145 -4.32121 -0.0499442 34.3145 -4.32121
434 2 2.25533 34.0729 -3.11563 2.25533 34.0729 -3.11563
435 2 1.61416 34.4712 -6.27221 1.61416 34.4712 -6.27221
436 1 3.2253 35.7874 -4.67813 3.2253 35.7874 -4.67813
437 2 5.09989 35.4657 -3.01996 5.09989 35.4657 -3.01996
438 2 5.30974 35.8784 -6.19625 5.30974 35.8784 -6.19625
439 1 5.95826 33.9601 -4.64327 5.95826 33.9601 -4.64327
440 2 8.02139 33.8145 -3.04695 8.02139 33.8145 -3.04695
441 2 9.77764 33.2787 -5.34586 9.77764 33.2787 -5.34586
442 1 9.23857 35.4912 -4.46335 9.23857 35.4912 -4.46335
443 2 11.277 35.6672 -3.09396 11.277 35.6672 -3.09396
444 2 11.0613 35.7708 -6.22963 11.0613 35.7708 -6.22963
445 1 12.1602 34.0672 -4.78769 12.1602 34.0672 -4.78769
446 2 14.497 34.1417 -3.83393 14.497 34.1417 -3.83393
447 2 13.5244 34.3482 -6.83985 13.5244 34.3482 -6.83985
448 1 15.1315 35.8489 -5.49483 15.1315 35.8489 -5.49483
449 2 17.0003 35.3183 -3.69031 17.0003 35.3183 -3.69031
450 2 17.4333 36.5004 -6.67591 17.4333 36.5004 -6.67591
451 1 18.1925 34.3105 -5.57438 18.1925 34.3105 -5.57438
452 2 20.0815 34.0339 -3.77535 20.0815 34.0339 -3.77535
453 2 20.2961 34.5266 -7.01195 20.2961 34.5266 -7.01195
454 1 21.1965 35.8499 -5.0633 21.1965 35.8499 -5.0633
455 2 23.1544 35.5363 -3.34739 23.1544 35.5363 -3.34739
456 2 23.2039 35.9521 -6.54199 23.2039 35.9521 -6.54199
457 1 24.1037 34.0709 -5.19171 24.1037 34.0709 -5.19171
458 2 26.3321 34.0606 -3.7179 26.3321 34.0606 -3.7179
459 2 26.176 34.2461 -6.84054 26.176 34.2461 -6.84054
460 1 27.0512 35.8558 -5.16908 27.0512 35.8558 -5.16908
461 2 28.6623 35.6925 -3.21145 28.6623 35.6925 -3.21145
462 2 29.2404 36.125 -6.44854 29.2404 36.125 -6.44854
463 1 30.0162 34.2214 -4.81203 30.0162 34.2214 -4.81203
464 2 32.2218 34.4735 -3.44521 32.2218 34.4735 -3.44521
465 2 31.8989 34.4232 -6.62249 31.8989 34.4232 -6.62249
466 1 32.9653 36.1117 -5.20118 32.9653 36.1117 -5.20118
467 2 35.0102 36.0504 -3.67988 35.0102 36.0504 -3.67988
468 2 34.7765 36.2891 -7.01403 34.7765 36.2891 -7.01403
469 1 36.0681 34.6878 -5.44633 36.0681 34.6878 -5.44633
470 2 38.1241 34.4435 -3.84353 38.1241 34.4435 -3.84353
471 2 38.065 34.77 -7.03836 38.065 34.77 -7.03836
472 1 39.2982 36.3775 -5.33281 39.2982 36.3775 -5.33281
473 2 41.3033 35.7149 -3.45294 41.3033 35.7149 -3.45294
474 2 41.2072 35.7864 -6.91579 41.2072 35.7864 -6.91579
475 1 42.0538 33.9723 -5.05315 42.0538 33.9723 -5.05315
476 2 44.0366 33.4052 -3.50798 44.0366 33.4052 -3.50798
477 2 43.8547 34.8117 -6.57749 43.8547 34.8117 -6.57749
478 1 41.2338 38.4941 -7.53607 41.2338 38.4941 -7.53607
479 2 44.8132 36.9692 -3.41105 44.8132 36.9692 -3.41105
480 2 43.8973 38.0059 -7.05189 43.8973 38.0059 -7.05189
481 1 45.4688 35.1376 -4.67164 45.4688 35.1376 -4.67164
482 2 47.3541 34.5123 -3.23961 47.3541 34.5123 -3.23961
483 2 47.1499 35.7103 -6.44274 47.1499 35.7103 -6.44274
484 1 48.7683 36.3445 -4.44551 48.7683 36.3445 -4.44551
485 2 50.5592 36.1271 -2.69296 50.5592 36.1271 -2.69296
486 2 50.7306 36.137 -5.98111 50.7306 36.137 -5.98111
487 1 51.8836 37.5925 -4.28479 0.472787 37.5925 -4.28479
488 2 2.38089 37.0311 -2.7218 2.38089 37.0311 -2.7218
489 2 2.33281 37.9213 -5.85018 2.33281 37.9213 -5.85018
490 1 3.50484 39.0091 -3.87432 3.50484 39.0091 -3.87432
491 2 5.38397 38.512 -2.35942 5.38397 38.512 -2.35942
492 2 5.43272 39.4663 -5.42286 5.43272 39.4663 -5.42286
493 1 6.37422 37.2442 -4.33291 6.37422 37.2442 -4.33291
494 2 8.29892 37.0134 -2.60605 8.29892 37.0134 -2.60605
495 2 8.41021 37.3717 -5.92065 8.41021 37.3717 -5.92065
496 1 9.31959 38.8879 -4.06212 9.31959 38.8879 -4.06212
497 2 11.4043 38.538 -2.71511 11.4043 38.538 -2.71511
498 2 11.11 39.3044 -5.85861 11.11 39.3044 -5.85861
499 1 12.2305 37.3953 -4.73107 12.2305 37.3953 -4.73107
500 2 14.2879 36.9121 -3.22048 14.2879 36.9121 -3.22048
501 2 14.0339 38.0059 -6.3683 14.0339 38.0059 -6.3683
502 1 15.1539 38.9462 -4.38144 15.1539 38.9462 -4.38144
503 2 17.1112 38.7154 -2.70564 17.1112 38.7154 -2.70564
504 2 17.0801 39.3406 -5.95852 17.0801 39.3406 -5.95852
505 1 18.2119 37.4345 -4.57605 18.2119 37.4345 -4.57605
506 2 20.28 37.0825 -3.08706 20.28 37.0825 -3.08706
507 2 20.1733 37.8108 -6.19241 20.1733 37.8108 -6.19241
508 1 21.0571 39.0126 -4.23243 21.0571 39.0126 -4.23243
509 2 23.1305 38.8122 -2.80765 23.1305 38.8122 -2.80765
510 2 22.9317 39.181 -5.99024 22.9317 39.181 -5.99024
511 1 24.069 37.4216 -4.71329 24.069 37.4216 -4.71329
512 2 25.854 36.9167 -3.09537 25.854 36.9167 -3.09537
513 2 25.9995 37.8845 -6.15101 25.9995 37.8845 -6.15101
514 1 26.8974 39.0491 -4.12501 26.8974 39.0491 -4.12501
515 2 28.9428 38.9696 -2.56174 28.9428 38.9696 -2.56174
516 2 28.8644 39.2428 -5.8085 28.8644 39.2428 -5.8085
517 1 29.943 37.5167 -4.41889 29.943 37.5167 -4.41889
518 2 32.1541 37.448 -3.14921 32.1541 37.448 -3.14921
519 2 31.7191 37.8695 -6.35909 31.7191 37.8695 -6.35909
520 1 32.711 39.3654 -4.6173 32.711 39.3654 -4.6173
521 2 34.8383 39.0737 -3.32515 34.8383 39.0737 -3.32515
522 2 34.3312 39.8358 -6.38083 34.3312 39.8358 -6.38083
523 1 35.7927 37.8863 -5.36479 35.7927 37.8863 -5.36479
524 2 38.02 38.2238 -3.99064 38.02 38.2238 -3.99064
525 2 36.7248 39.0457 -7.54792 36.7248 39.0457 -7.54792
526 1 38.5203 39.6485 -6.00331 38.5203 39.6485 -6.00331
527 2 41.0546 38.793 -5.12577 41.0546 38.793 -5.12577
528 2 38.9285 37.559 -7.57392 38.9285 37.559 -7.57392
529 1 42.7993 36.9209 -5.11115 42.7993 36.9209 -5.11115
530 2 39.4599 40.5976 -3.86954 39.4599 40.5976 -3.86954
531 2 39.9066 40.738 -7.72636 39.9066 40.738 -7.72636
532 1 43.613 39.9024 -5.59589 43.613 39.9024 -5.59589
533 2 45.1899 39.785 -3.69902 45.1899 39.785 -3.69902
534 2 45.7075 40.1744 -6.90787 45.7075 40.1744 -6.90787
535 1 46.1759 38.1706 -5.21631 46.1759 38.1706 -5.21631
536 2 47.476 38.0142 -3.05787 47.476 38.0142 -3.05787
537 2 48.6057 38.1367 -6.15291 48.6057 38.1367 -6.15291
538 1 49.1491 39.4853 -4.29064 49.1491 39.4853 -4.29064
539 2 50.9036 39.0396 -2.49828 50.9036 39.0396 -2.49828
540 2 51.2644 39.4692 -5.68891 51.2644 39.4692 -5.68891
541 1 52.1299 40.7878 -3.81265 0.71917 40.7878 -3.81265
542 2 2.29942 40.2679 -1.97729 2.29942 40.2679 -1.97729
543 2 2.89197 41.1414 -5.0847 2.89197 41.1414 -5.0847
544 1 3.65297 42.2116 -3.03081 3.65297 42.2116 -3.03081