ITEM: TIMESTEP
5298000
ITEM: NUMBER OF ATOMS
810
ITEM: BOX BOUNDS pp pp pp
8.0341777045796159e-01 5.2214187229542503e+01
-1.2281451907396667e+01 6.3297666907395538e+01
-1.0000000000000000e+01 1.0000000000000000e+01
ITEM: ATOMS id type x y z xu yu zu
1 1 1.03195 62.015 1.03009 1.03195 -13.5641 1.03009
2 2 2.91684 60.9101 2.33971 2.91684 -14.6691 2.33971
3 2 3.07661 62.8236 -0.272235 3.07661 -12.7556 -0.272235
4 1 3.83462 63.198 2.08071 3.83462 -12.3811 2.08071
5 2 5.79228 62.2081 3.50736 5.79228 -13.371 3.50736
6 2 5.73247 -11.4366 0.701728 5.73247 -11.4366 0.701728
7 1 6.65982 61.8933 1.18875 6.65982 -13.6859 1.18875
8 2 8.33284 60.7552 2.66374 8.33284 -14.824 2.66374
9 2 8.80267 62.6415 0.107674 8.80267 -12.9376 0.107674
10 1 9.57743 62.9009 2.36476 9.57743 -12.6782 2.36476
11 2 11.365 62.1025 3.85837 11.365 -13.4766 3.85837
12 2 11.4674 -11.8127 1.09699 11.4674 -11.8127 1.09699
13 1 12.395 61.4738 1.61248 12.395 -14.1053 1.61248
14 2 14.3399 60.6562 2.94659 14.3399 -14.9229 2.94659
15 2 14.2466 62.4311 0.136789 14.2466 -13.148 0.136789
16 1 15.249 63 2.39941 15.249 -12.5791 2.39941
17 2 17.1592 62.1511 3.69071 17.1592 -13.428 3.69071
18 2 16.976 -11.6125 0.969654 16.976 -11.6125 0.969654
19 1 18.0251 61.6913 1.26986 18.0251 -13.8878 1.26986
20 2 19.9198 60.9972 2.74137 19.9198 -14.5819 2.74137
21 2 20.1006 62.5505 -0.0974642 20.1006 -13.0286 -0.0974642
22 1 21.0089 63.2124 2.18995 21.0089 -12.3667 2.18995
23 2 22.9674 62.5418 3.61241 22.9674 -13.0373 3.61241
24 2 22.8494 -11.3244 0.848398 22.8494 -11.3244 0.848398
25 1 23.8853 61.923 1.33979 23.8853 -13.6561 1.33979
26 2 25.8355 61.1421 2.74134 25.8355 -14.437 2.74134
27 2 25.7192 62.8465 -0.103099 25.7192 -12.7326 -0.103099
28 1 26.7696 -12.1787 2.09137 26.7696 -12.1787 2.09137
29 2 28.6637 62.562 3.46566 28.6637 -13.0172 3.46566
30 2 28.645 -11.3304 0.670743 28.645 -11.3304 0.670743
31 1 29.5932 61.9185 1.17118 29.5932 -13.6606 1.17118
32 2 31.53 61.3368 2.56628 31.53 -14.2423 2.56628
33 2 31.4309 62.7743 -0.292507 31.4309 -12.8048 -0.292507
34 1 32.3217 -12.0176 1.85732 32.3217 -12.0176 1.85732
35 2 34.1782 62.4565 3.39288 34.1782 -13.1226 3.39288
36 2 34.5007 -11.1969 0.714109 34.5007 -11.1969 0.714109
37 1 35.2598 62.0409 1.14912 35.2598 -13.5382 1.14912
38 2 37.3187 61.2268 2.2607 37.3187 -14.3523 2.2607
39 2 36.9424 62.9879 -0.499981 36.9424 -12.5912 -0.499981
40 1 38.0939 -12.0187 1.74466 38.0939 -12.0187 1.74466
41 2 40.0762 62.4086 3.03158 40.0762 -13.1706 3.03158
42 2 40.068 -10.865 0.726621 40.068 -10.865 0.726621
43 1 40.9769 62.3768 0.775174 40.9769 -13.2023 0.775174
44 2 42.8571 61.2019 1.9932 42.8571 -14.3772 1.9932
45 2 42.9725 -12.0372 -0.331326 42.9725 -12.0372 -0.331326
46 1 43.8832 -12.0795 2.0708 43.8832 -12.0795 2.0708
47 2 45.7375 62.2888 3.26328 45.7375 -13.2903 3.26328
48 2 45.8796 -11.0867 0.855349 45.8796 -11.0867 0.855349
49 1 46.7953 62.1455 0.951435 46.7953 -13.4336 0.951435
50 2 48.5719 60.9663 2.22339 48.5719 -14.6128 2.22339
51 2 48.7382 63.2229 -0.198214 48.7382 -12.3563 -0.198214
52 1 49.6132 -12.3942 2.13033 49.6132 -12.3942 2.13033
53 2 51.5544 62.1669 3.37576 51.5544 -13.4123 3.37576
54 2 51.5251 -11.3071 0.761427 51.5251 -11.3071 0.761427
55 1 1.00554 -11.0085 3.13591 1.00554 -11.0085 3.13591
56 2 2.9542 -11.9669 4.38203 2.9542 -11.9669 4.38203
57 2 2.91127 -10.0304 1.84 2.91127 -10.0304 1.84
58 1 3.85693 -9.6653 4.1175 3.85693 -9.6653 4.1175
59 2 5.7454 -10.835 5.39595 5.7454 -10.835 5.39595
60 2 5.7261 -8.72117 2.9284 5.7261 -8.72117 2.9284
61 1 6.75112 -11.0758 3.04407 6.75112 -11.0758 3.04407
62 2 8.55012 -12.1199 4.61974 8.55012 -12.1199 4.61974
63 2 8.83252 -10.2357 1.94533 8.83252 -10.2357 1.94533
64 1 9.54777 -9.90815 4.27637 9.54777 -9.90815 4.27637
65 2 11.511 -10.7252 5.69735 11.511 -10.7252 5.69735
66 2 11.4345 -9.04652 2.86037 11.4345 -9.04652 2.86037
67 1 12.4366 -11.2464 3.39492 12.4366 -11.2464 3.39492
68 2 14.4509 63.5741 4.64014 14.4509 -12.005 4.64014
69 2 14.1551 -10.4006 1.77353 14.1551 -10.4006 1.77353
70 1 15.2532 -9.73838 3.96316 15.2532 -9.73838 3.96316
71 2 17.1139 -10.7736 5.40982 17.1139 -10.7736 5.40982
72 2 17.1949 -8.89001 2.71765 17.1949 -8.89001 2.71765
73 1 18.1403 -11.1863 3.16796 18.1403 -11.1863 3.16796
74 2 20.1651 -11.7745 4.53931 20.1651 -11.7745 4.53931
75 2 19.9279 -10.1875 1.67929 19.9279 -10.1875 1.67929
76 1 20.9701 -9.60795 3.87068 20.9701 -9.60795 3.87068
77 2 22.9131 -10.2682 5.31755 22.9131 -10.2682 5.31755
78 2 22.986 -8.59663 2.59239 22.986 -8.59663 2.59239
79 1 23.9209 -10.8031 3.08868 23.9209 -10.8031 3.08868
80 2 25.9175 -11.586 4.31774 25.9175 -11.586 4.31774
81 2 25.6849 -9.96732 1.53265 25.6849 -9.96732 1.53265
82 1 26.768 -9.29294 3.71232 26.768 -9.29294 3.71232
83 2 28.7303 -10.1663 5.14587 28.7303 -10.1663 5.14587
84 2 28.6634 -8.45844 2.39862 28.6634 -8.45844 2.39862
85 1 29.6373 -10.8031 2.91892 29.6373 -10.8031 2.91892
86 2 31.5407 -11.6965 4.15081 31.5407 -11.6965 4.15081
87 2 31.2573 -9.6619 1.57677 31.2573 -9.6619 1.57677
88 1 32.3637 -9.33559 3.80423 32.3637 -9.33559 3.80423
89 2 34.1918 -10.4745 5.2543 34.1918 -10.4745 5.2543
90 2 34.4306 -8.46437 2.58132 34.4306 -8.46437 2.58132
91 1 35.2112 -10.8824 3.02815 35.2112 -10.8824 3.02815
92 2 37.2999 -11.8591 4.0972 37.2999 -11.8591 4.0972
93 2 37.0601 -9.82425 1.59245 37.0601 -9.82425 1.59245
94 1 38.1477 -9.46577 3.94301 38.1477 -9.46577 3.94301
95 2 39.8871 -10.4606 5.29715 39.8871 -10.4606 5.29715
96 2 40.2268 -8.42115 2.94752 40.2268 -8.42115 2.94752
97 1 41.048 -10.789 3.06195 41.048 -10.789 3.06195
98 2 42.8683 -11.8362 4.47328 42.8683 -11.8362 4.47328
99 2 42.9077 -9.79533 1.89126 42.9077 -9.79533 1.89126
100 1 43.8899 -9.69539 4.22675 43.8899 -9.69539 4.22675
101 2 45.7683 -10.6783 5.54997 45.7683 -10.6783 5.54997
102 2 45.7814 -8.75374 2.87828 45.7814 -8.75374 2.87828
103 1 46.7397 -11.0368 3.16093 46.7397 -11.0368 3.16093
104 2 48.6291 -12.0786 4.44917 48.6291 -12.0786 4.44917
105 2 48.5817 -10.1819 1.84866 48.5817 -10.1819 1.84866
106 1 49.5252 -9.83469 4.12558 49.5252 -9.83469 4.12558
107 2 51.5224 -10.8356 5.38213 51.5224 -10.8356 5.38213
108 2 51.402 -8.76647 2.90666 51.402 -8.76647 2.90666
109 1 1.07212 -8.45436 5.12197 1.07212 -8.45436 5.12197
110 2 2.92161 -9.60093 6.39676 2.92161 -9.60093 6.39676
111 2 2.97309 -7.42404 3.90275 2.97309 -7.42404 3.90275
112 1 3.79565 -7.24965 6.21308 3.79565 -7.24965 6.21308
113 2 5.70273 -8.21564 7.62217 5.70273 -8.21564 7.62217
114 2 5.69108 -6.28612 4.97621 5.69108 -6.28612 4.97621
115 1 6.78069 -8.57472 5.23855 6.78069 -8.57472 5.23855
116 2 8.63113 -9.53553 6.58325 8.63113 -9.53553 6.58325
117 2 8.70844 -7.46763 4.06319 8.70844 -7.46763 4.06319
118 1 9.55902 -7.32586 6.35711 9.55902 -7.32586 6.35711
119 2 11.6174 -8.31582 7.42198 11.6174 -8.31582 7.42198
120 2 11.3292 -6.14277 5.00957 11.3292 -6.14277 5.00957
121 1 12.4169 -8.42473 5.1188 12.4169 -8.42473 5.1188
122 2 14.3342 -9.5578 6.32124 14.3342 -9.5578 6.32124
123 2 14.2248 -7.35966 3.98127 14.2248 -7.35966 3.98127
124 1 15.2754 -7.32927 6.22008 15.2754 -7.32927 6.22008
125 2 17.3865 -8.12225 7.35996 17.3865 -8.12225 7.35996
126 2 16.8852 -6.24551 4.77043 16.8852 -6.24551 4.77043
127 1 18.134 -8.3871 4.99406 18.134 -8.3871 4.99406
128 2 20.1119 -9.11192 6.20004 20.1119 -9.11192 6.20004
129 2 19.8836 -7.33704 3.49296 19.8836 -7.33704 3.49296
130 1 21.0244 -6.79597 5.62348 21.0244 -6.79597 5.62348
131 2 22.9556 -7.63167 7.06477 22.9556 -7.63167 7.06477
132 2 22.8947 -5.86036 4.23438 22.8947 -5.86036 4.23438
133 1 23.9111 -7.98579 4.859 23.9111 -7.98579 4.859
134 2 25.8457 -9.00933 6.04786 25.8457 -9.00933 6.04786
135 2 25.6746 -7.07807 3.41045 25.6746 -7.07807 3.41045
136 1 26.7035 -6.73673 5.77374 26.7035 -6.73673 5.77374
137 2 28.6394 -7.6836 6.94081 28.6394 -7.6836 6.94081
138 2 28.5755 -5.63903 4.45047 28.5755 -5.63903 4.45047
139 1 29.578 -7.94414 4.66042 29.578 -7.94414 4.66042
140 2 31.35 -8.93934 6.11676 31.35 -8.93934 6.11676
141 2 31.5376 -6.92812 3.4525 31.5376 -6.92812 3.4525
142 1 32.4928 -6.75317 5.75995 32.4928 -6.75317 5.75995
143 2 34.2655 -7.80075 7.17331 34.2655 -7.80075 7.17331
144 2 34.6 -5.73405 4.5846 34.6 -5.73405 4.5846
145 1 35.2327 -8.13823 4.90249 35.2327 -8.13823 4.90249
146 2 37.1448 -9.26913 6.28126 37.1448 -9.26913 6.28126
147 2 37.2582 -7.07406 3.8052 37.2582 -7.07406 3.8052
148 1 38.24 -6.9331 6.12674 38.24 -6.9331 6.12674
149 2 40.0047 -7.83875 7.58418 40.0047 -7.83875 7.58418
150 2 40.1582 -5.98858 4.89635 40.1582 -5.98858 4.89635
151 1 40.9973 -8.29911 5.29416 40.9973 -8.29911 5.29416
152 2 42.8705 -9.2671 6.48888 42.8705 -9.2671 6.48888
153 2 43.0178 -7.32666 3.98979 43.0178 -7.32666 3.98979
154 1 43.9843 -7.00486 6.19403 43.9843 -7.00486 6.19403
155 2 45.8845 -8.10157 7.43179 45.8845 -8.10157 7.43179
156 2 45.8351 -6.16846 4.91199 45.8351 -6.16846 4.91199
157 1 46.7872 -8.37613 5.15617 46.7872 -8.37613 5.15617
158 2 48.7353 -9.30437 6.4511 48.7353 -9.30437 6.4511
159 2 48.6331 -7.37161 3.83418 48.6331 -7.37161 3.83418
160 1 49.6621 -7.0713 6.06003 49.6621 -7.0713 6.06003
161 2 51.3912 -8.14513 7.54305 51.3912 -8.14513 7.54305
162 2 51.578 -6.04243 4.86316 51.578 -6.04243 4.86316
163 1 1.04889 -5.84863 7.22183 1.04889 -5.84863 7.22183
164 2 2.81682 -6.94142 8.52739 2.81682 -6.94142 8.52739
165 2 2.93032 -4.90262 5.94825 2.93032 -4.90262 5.94825
166 1 3.86975 -4.69944 8.24898 3.86975 -4.69944 8.24898
167 2 5.73486 -5.74658 9.64396 5.73486 -5.74658 9.64396
168 2 5.77261 -3.63008 7.13448 5.77261 -3.63008 7.13448
169 1 6.69109 -5.98249 7.25691 6.69109 -5.98249 7.25691
170 2 8.55492 -6.93374 8.63088 8.55492 -6.93374 8.63088
171 2 8.65898 -5.10853 5.99449 8.65898 -5.10853 5.99449
172 1 9.59716 -4.72845 8.33724 9.59716 -4.72845 8.33724
173 2 11.517 -5.71163 9.57199 11.517 -5.71163 9.57199
174 2 11.3925 -3.73837 6.93388 11.3925 -3.73837 6.93388
175 1 12.4321 -5.96349 7.30262 12.4321 -5.96349 7.30262
176 2 14.196 -7.10633 8.56034 14.196 -7.10633 8.56034
177 2 14.3094 -5.01231 5.88642 14.3094 -5.01231 5.88642
178 1 15.3695 -4.74259 8.29316 15.3695 -4.74259 8.29316
179 2 17.4498 -5.31424 9.28053 17.4498 -5.31424 9.28053
180 2 16.7854 -3.55045 6.6832 16.7854 -3.55045 6.6832
181 1 18.155 -5.74743 6.91536 18.155 -5.74743 6.91536
182 2 20.2952 -6.32231 8.03672 20.2952 -6.32231 8.03672
183 2 19.9318 -4.56312 5.16317 19.9318 -4.56312 5.16317
184 1 20.9872 -4.00829 7.45202 20.9872 -4.00829 7.45202
185 2 22.8166 -4.97225 8.77204 22.8166 -4.97225 8.77204
186 2 22.9488 -3.05866 6.12689 22.9488 -3.05866 6.12689
187 1 23.8585 -5.39482 6.50956 23.8585 -5.39482 6.50956
188 2 25.6777 -6.36142 8.03822 25.6777 -6.36142 8.03822
189 2 25.6796 -4.45692 5.24569 25.6796 -4.45692 5.24569
190 1 26.7054 -4.05235 7.61454 26.7054 -4.05235 7.61454
191 2 28.5471 -4.92989 9.0596 28.5471 -4.92989 9.0596
192 2 28.6877 -3.07508 6.34459 28.6877 -3.07508 6.34459
193 1 29.6187 -5.36816 6.69768 29.6187 -5.36816 6.69768
194 2 31.5817 -6.40411 8.10038 31.5817 -6.40411 8.10038
195 2 31.6349 -4.34418 5.49192 31.6349 -4.34418 5.49192
196 1 32.539 -4.14983 7.80356 32.539 -4.14983 7.80356
197 2 34.3023 -5.25559 9.10182 34.3023 -5.25559 9.10182
198 2 34.5849 -3.12476 6.67352 34.5849 -3.12476 6.67352
199 1 35.3843 -5.5095 6.96848 35.3843 -5.5095 6.96848
200 2 37.1794 -6.6613 8.32844 37.1794 -6.6613 8.32844
201 2 37.4215 -4.59077 5.84393 37.4215 -4.59077 5.84393
202 1 38.0714 -4.36459 8.23829 38.0714 -4.36459 8.23829
203 2 39.967 -5.25827 9.55764 39.967 -5.25827 9.55764
204 2 40.0812 -3.38263 7.00565 40.0812 -3.38263 7.00565
205 1 41.0483 -5.64318 7.2794 41.0483 -5.64318 7.2794
206 2 42.9786 -6.78536 8.49018 42.9786 -6.78536 8.49018
207 2 43.0086 -4.66324 6.05701 43.0086 -4.66324 6.05701
208 1 43.966 -4.45302 8.30933 43.966 -4.45302 8.30933
209 2 45.9571 -5.45825 9.41776 45.9571 -5.45825 9.41776
210 2 45.7125 -3.34847 6.9116 45.7125 -3.34847 6.9116
211 1 46.7767 -5.72131 7.16835 46.7767 -5.72131 7.16835
212 2 48.7123 -6.68967 8.40206 48.7123 -6.68967 8.40206
213 2 48.493 -4.82909 5.71922 48.493 -4.82909 5.71922
214 1 49.6056 -4.32288 8.01148 49.6056 -4.32288 8.01148
215 2 51.4364 -5.43966 9.48579 51.4364 -5.43966 9.48579
216 2 51.6174 -3.44376 6.83922 51.6174 -3.44376 6.83922
217 1 1.03903 -3.21428 9.1644 1.03903 -3.21428 9.1644
218 2 2.7991 -4.18319 -9.49513 2.7991 -4.18319 10.5049
219 2 3.01995 -2.43303 7.73846 3.01995 -2.43303 7.73846
220 1 3.79417 -1.93306 -9.85431 3.79417 -1.93306 10.1457
221 2 5.51806 -3.00272 -8.38352 5.51806 -3.00272 11.6165
222 2 5.92974 -1.03951 9.14767 5.92974 -1.03951 9.14767
223 1 6.63748 -3.45586 9.40443 6.63748 -3.45586 9.40443
224 2 8.49637 -4.56677 -9.36788 8.49637 -4.56677 10.6321
225 2 8.52305 -2.49265 8.01211 8.52305 -2.49265 8.01211
226 1 9.47163 -2.1666 -9.59681 9.47163 -2.1666 10.4032
227 2 11.5927 -2.88425 -8.47996 11.5927 -2.88425 11.52
228 2 11.2424 -1.21556 8.84429 11.2424 -1.21556 8.84429
229 1 12.4601 -3.39237 9.19403 12.4601 -3.39237 9.19403
230 2 14.409 -4.23146 -9.36965 14.409 -4.23146 10.6303
231 2 14.2806 -2.47978 7.83963 14.2806 -2.47978 7.83963
232 1 15.2391 -1.86806 -9.93578 15.2391 -1.86806 10.0642
233 2 17.3753 -2.72627 -8.83784 17.3753 -2.72627 11.1622
234 2 16.9097 -0.722649 8.63171 16.9097 -0.722649 8.63171
235 1 18.08 -3.00092 8.7346 18.08 -3.00092 8.7346
236 2 20.2274 -3.73955 -10.1899 20.2274 -3.73955 9.81012
237 2 19.7067 -1.74716 7.26129 19.7067 -1.74716 7.26129
238 1 20.9659 -1.38103 9.44065 20.9659 -1.38103 9.44065
239 2 22.8653 -2.45104 -9.34217 22.8653 -2.45104 10.6578
240 2 22.9355 -0.349635 8.14573 22.9355 -0.349635 8.14573
241 1 23.8889 -2.64188 8.39981 23.8889 -2.64188 8.39981
242 2 25.5902 -3.73552 9.82816 25.5902 -3.73552 9.82816
243 2 25.759 -1.6784 7.28189 25.759 -1.6784 7.28189
244 1 26.7372 -1.5494 9.68282 26.7372 -1.5494 9.68282
245 2 28.6076 -2.45339 -9.00617 28.6076 -2.45339 10.9938
246 2 28.7329 -0.418126 8.50853 28.7329 -0.418126 8.50853
247 1 29.6613 -2.81716 8.72614 29.6613 -2.81716 8.72614
248 2 31.5316 -3.82069 10.0493 31.5316 -3.82069 10.0493
249 2 31.612 -1.88036 7.4657 31.612 -1.88036 7.4657
250 1 32.3752 -1.50817 9.80119 32.3752 -1.50817 9.80119
251 2 34.0898 -2.54439 -8.69734 34.0898 -2.54439 11.3027
252 2 34.4329 -0.609648 8.44821 34.4329 -0.609648 8.44821
253 1 35.2919 -2.9213 8.98268 35.2919 -2.9213 8.98268
254 2 36.9915 -3.94053 -9.42632 36.9915 -3.94053 10.5737
255 2 37.3565 -2.05189 7.83445 37.3565 -2.05189 7.83445
256 1 38.1918 -1.77066 -9.8999 38.1918 -1.77066 10.1001
257 2 40.0299 -2.73158 -8.53816 40.0299 -2.73158 11.4618
258 2 41.747 -0.774202 -9.78659 41.747 -0.774202 10.2134
259 1 41.1536 -2.97029 9.28956 41.1536 -2.97029 9.28956
260 2 42.9453 -4.28956 -9.38723 42.9453 -4.28956 10.6128
261 2 43.3414 -2.06727 8.16817 43.3414 -2.06727 8.16817
262 1 43.936 -2.08935 -9.32466 43.936 -2.08935 10.6753
263 2 46.1992 -3.09398 -8.48373 46.1992 -3.09398 11.5163
264 2 45.6753 -0.813867 9.35617 45.6753 -0.813867 9.35617
265 1 46.7871 -2.9749 9.15676 46.7871 -2.9749 9.15676
266 2 48.6569 -4.00847 -9.63265 48.6569 -4.00847 10.3674
267 2 48.7222 -1.97092 7.74088 48.7222 -1.97092 7.74088
268 1 49.6749 -1.6513 -9.93332 49.6749 -1.6513 10.0667
269 2 51.5624 -2.57514 -8.63688 51.5624 -2.57514 11.3631
270 2 51.5229 -0.761076 8.65194 51.5229 -0.761076 8.65194
271 1 0.981301 -0.316248 -9.1384 0.981301 -0.316248 10.8616
272 2 2.73984 -1.38169 -7.55658 2.73984 -1.38169 12.4434
273 2 2.95694 0.478932 -10.4098 2.95694 0.478932 9.59023
274 1 3.86173 0.807747 -8.06626 3.86173 0.807747 11.9337
275 2 5.40274 -0.14214 -6.4688 5.40274 -0.14214 13.5312
276 2 6.07279 1.45967 -9.16897 6.07279 1.45967 10.831
277 1 6.64798 -0.799571 -8.51287 6.64798 -0.799571 11.4871
278 2 8.63346 -1.80067 -7.31124 8.63346 -1.80067 12.6888
279 2 8.50036 0.108804 10.0117 8.50036 0.108804 10.0117
280 1 9.45873 0.468309 -7.69085 9.45873 0.468309 12.3092
281 2 11.5208 -0.39691 -6.64562 11.5208 -0.39691 13.3544
282 2 11.2106 1.73111 -9.12374 11.2106 1.73111 10.8763
283 1 12.3114 -0.523138 -8.97874 12.3114 -0.523138 11.0213
284 2 14.2071 -1.65766 -7.65624 14.2071 -1.65766 12.3438
285 2 14.3024 0.319746 -10.2372 14.3024 0.319746 9.76283
286 1 15.2055 0.738757 -7.90137 15.2055 0.738757 12.0986
287 2 17.2081 -0.354782 -6.76541 17.2081 -0.354782 13.2346
288 2 17.104 1.90432 -9.0154 17.104 1.90432 10.9846
289 1 18.0941 -0.381573 -9.2055 18.0941 -0.381573 10.7945
290 2 20.1653 -1.27285 -8.18384 20.1653 -1.27285 11.8162
291 2 19.8409 0.853769 9.47764 19.8409 0.853769 9.47764
292 1 20.9486 1.11745 -8.34569 20.9486 1.11745 11.6543
293 2 23.1074 0.496548 -7.18548 23.1074 0.496548 12.8145
294 2 22.6241 2.1173 10.0466 22.6241 2.1173 10.0466
295 1 23.8706 -0.0652017 -9.50775 23.8706 -0.0652017 10.4923
296 2 25.6557 -1.09617 -8.14506 25.6557 -1.09617 11.8549
297 2 25.8736 0.853367 9.25425 25.8736 0.853367 9.25425
298 1 26.7228 1.19024 -8.44896 26.7228 1.19024 11.551
299 2 28.525 0.334582 -6.98967 28.525 0.334582 13.0103
300 2 28.7056 1.92521 -9.79652 28.7056 1.92521 10.2035
301 1 29.614 -0.282653 -9.16653 29.614 -0.282653 10.8335
302 2 31.5384 -1.09211 -7.86617 31.5384 -1.09211 12.1338
303 2 31.3763 0.74313 9.34909 31.3763 0.74313 9.34909
304 1 32.4865 1.28633 -8.42226 32.4865 1.28633 11.5777
305 2 34.617 0.85846 -7.07864 34.617 0.85846 12.9214
306 2 34.3077 1.84671 -9.96481 34.3077 1.84671 10.0352
307 1 35.2998 -0.323875 -9.16204 35.2998 -0.323875 10.838
308 2 36.8863 -1.69662 -7.72603 36.8863 -1.69662 12.274
309 2 37.592 0.615193 -9.33739 37.592 0.615193 10.6626
310 1 38.4758 34.9092 5.35348 38.4758 34.9092 -14.6465
311 2 39.4095 32.5797 5.40958 39.4095 32.5797 -14.5904
312 2 40.5827 35.8139 4.68286 40.5827 35.8139 -15.3171
313 1 41.4917 33.5479 4.69106 41.4917 33.5479 -15.3089
314 2 41.4233 33.3038 7.09312 41.4233 33.3038 -12.9069
315 2 43.5594 32.038 5.1082 43.5594 32.038 -14.8918
316 1 43.8928 33.636 6.94984 43.8928 33.636 -13.0502
317 2 45.5978 33.0498 8.76406 45.5978 33.0498 -11.2359
318 2 45.7598 34.0221 5.29999 45.7598 34.0221 -14.7
319 1 46.8751 -0.760606 -8.47601 46.8751 -0.760606 11.524
320 2 49.0905 -1.4047 -7.54689 49.0905 -1.4047 12.4531
321 2 48.4755 0.44959 9.93959 48.4755 0.44959 9.93959
322 1 49.5636 0.938878 -7.86977 49.5636 0.938878 12.1302
323 2 51.682 0.10992 -6.77701 51.682 0.10992 13.223
324 2 51.3579 2.00443 -9.378 51.3579 2.00443 10.622
325 1 1.0822 2.44513 -7.19765 1.0822 2.44513 12.8023
326 2 3.07684 1.61748 -5.89457 3.07684 1.61748 14.1054
327 2 2.97478 3.05116 -8.66908 2.97478 3.05116 11.3309
328 1 3.80381 3.94027 -6.53943 3.80381 3.94027 13.4606
329 2 5.30053 3.06959 -4.87372 5.30053 3.06959 15.1263
330 2 6.06943 4.19063 -7.73281 6.06943 4.19063 12.2672
331 1 6.64112 2.06 -6.74848 6.64112 2.06 13.2515
332 2 8.3677 0.834889 -5.50215 8.3677 0.834889 14.4978
333 2 8.69369 2.79963 -7.88946 8.69369 2.79963 12.1105
334 1 9.4151 3.1453 -5.45134 9.4151 3.1453 14.5487
335 2 11.6858 2.0453 -4.53803 11.6858 2.0453 15.462
336 2 11.248 4.31245 -7.01171 11.248 4.31245 12.9883
337 1 12.3509 1.99159 -6.91192 12.3509 1.99159 13.0881
338 2 14.3041 1.1013 -5.57853 14.3041 1.1013 14.4215
339 2 14.0586 2.90596 -8.33931 14.0586 2.90596 11.6607
340 1 15.1356 3.39409 -6.10435 15.1356 3.39409 13.8956
341 2 16.6597 2.38736 -4.60653 16.6597 2.38736 15.3935
342 2 17.2897 4.27173 -7.10808 17.2897 4.27173 12.8919
343 1 18.1379 1.93329 -6.6383 18.1379 1.93329 13.3617
344 2 20.4159 0.92552 -5.92274 20.4159 0.92552 14.0773
345 2 19.7535 3.23799 -8.06825 19.7535 3.23799 11.9317
346 1 20.9689 3.4341 -5.89122 20.9689 3.4341 14.1088
347 2 23.3174 2.84782 -5.20139 23.3174 2.84782 14.7986
348 2 22.0328 5.07029 -7.3792 22.0328 5.07029 12.6208
349 1 23.7883 2.88436 -7.7294 23.7883 2.88436 12.2706
350 2 25.7931 1.91943 -6.211 25.7931 1.91943 13.789
351 2 25.9059 3.42997 -9.19181 25.9059 3.42997 10.8082
352 1 26.7276 4.16284 -6.81374 26.7276 4.16284 13.1863
353 2 28.5614 3.33585 -5.41662 28.5614 3.33585 14.5834
354 2 28.7224 5.01058 -7.95228 28.7224 5.01058 12.0477
355 1 29.5824 2.57617 -7.56044 29.5824 2.57617 12.4396
356 2 31.1893 1.23275 -6.18912 31.1893 1.23275 13.8109
357 2 31.7624 3.67233 -8.16412 31.7624 3.67233 11.8359
358 1 32.9269 37.7738 7.34481 32.9269 37.7738 -12.6552
359 2 36.4411 36.71 8.5763 36.4411 36.71 -11.4237
360 2 34.9338 38.7745 6.23171 34.9338 38.7745 -13.7683
361 1 35.6437 36.4386 6.30486 35.6437 36.4386 -13.6951
362 2 39.0966 34.8984 7.77334 39.0966 34.8984 -12.2267
363 2 37.7195 37.314 5.3912 37.7195 37.314 -14.6088
364 1 38.6165 37.4169 7.76355 38.6165 37.4169 -12.2364
365 2 40.4697 36.6625 9.30753 40.4697 36.6625 -10.6925
366 2 40.7279 38.1435 6.46123 40.7279 38.1435 -13.5388
367 1 41.401 35.773 7.05207 41.401 35.773 -12.9479
368 2 43.0637 35.0512 8.86054 43.0637 35.0512 -11.1395
369 2 43.2389 35.5397 5.54472 43.2389 35.5397 -14.4553
370 1 44.5248 36.7379 7.7449 44.5248 36.7379 -12.2551
371 2 46.2579 35.9014 9.42603 46.2579 35.9014 -10.574
372 2 46.5716 36.9592 6.23893 46.5716 36.9592 -13.7611
373 1 46.9682 34.745 7.32679 46.9682 34.745 -12.6732
374 2 48.7413 33.3985 8.42608 48.7413 33.3985 -11.5739
375 2 49.7783 37.8256 7.17054 49.7783 37.8256 -12.8295
376 1 50.028 35.5815 8.37263 50.028 35.5815 -11.6274
377 2 49.1209 35.0079 6.21258 49.1209 35.0079 -13.7874
378 2 51.9838 35.9143 6.92225 51.9838 35.9143 -13.0778
379 1 50.7099 38.7076 9.31912 -0.700884 38.7076 -10.6809
380 2 52.2094 39.0905 -8.69504 0.798618 39.0905 -8.69504
381 2 1.60762 38.4497 7.99665 1.60762 38.4497 -12.0033
382 1 2.66979 39.9593 9.87011 2.66979 39.9593 -10.1299
383 2 4.6415 39.5564 -8.44703 4.6415 39.5564 -8.44703
384 2 3.08389 37.4672 -9.62048 3.08389 37.4672 -9.62048
385 1 6.62428 5.17651 -5.49132 6.62428 5.17651 14.5087
386 2 7.78191 4.09589 -3.64661 7.78191 4.09589 16.3534
387 2 8.92235 5.50094 -6.35342 8.92235 5.50094 13.6466
388 1 9.34384 6.12222 -4.07871 9.34384 6.12222 15.9213
389 2 10.4911 4.11338 -3.28974 10.4911 4.11338 16.7103
390 2 11.4128 6.94734 -5.07029 11.4128 6.94734 14.9297
391 1 12.3398 4.55692 -4.80373 12.3398 4.55692 15.1963
392 2 15.2628 4.8473 -4.07686 15.2628 4.8473 15.9231
393 2 13.8743 5.47311 -6.52524 13.8743 5.47311 13.4748
394 1 14.9643 39.8482 9.53062 14.9643 39.8482 -10.4694
395 2 17.0634 39.3948 -9.30202 17.0634 39.3948 -9.30202
396 2 16.0559 41.77 8.36046 16.0559 41.77 -11.6395
397 1 17.839 4.54803 -4.65768 17.839 4.54803 15.3423
398 2 19.2285 2.50476 -4.23758 19.2285 2.50476 15.7624
399 2 21.4224 5.40416 -4.24313 21.4224 5.40416 15.7569
400 1 20.9792 39.8614 9.43595 20.9792 39.8614 -10.5641
401 2 22.1347 40.2421 -8.39038 22.1347 40.2421 -8.39038
402 2 23.1125 40.6343 8.22392 23.1125 40.6343 -11.7761
403 1 23.7347 5.25374 -5.41475 23.7347 5.25374 14.5852
404 2 25.7575 4.21017 -4.39719 25.7575 4.21017 15.6028
405 2 24.7011 5.30016 -7.6298 24.7011 5.30016 12.3702
406 1 27.1639 40.1604 9.09616 27.1639 40.1604 -10.9038
407 2 30.9317 39.3746 -9.42312 30.9317 39.3746 -9.42312
408 2 29.1649 41.1667 8.06048 29.1649 41.1667 -11.9395
409 1 30.0372 39.0102 8.37004 30.0372 39.0102 -11.63
410 2 33.8012 38.1146 9.59315 33.8012 38.1146 -10.4069
411 2 31.9777 39.9383 7.17117 31.9777 39.9383 -12.8288
412 1 33.0145 40.4361 9.40661 33.0145 40.4361 -10.5934
413 2 35.1513 40.1486 -9.17592 35.1513 40.1486 -9.17592
414 2 34.791 41.3056 7.71272 34.791 41.3056 -12.2873
415 1 35.9257 39.1668 8.53285 35.9257 39.1668 -11.4672
416 2 37.8839 38.4559 -10.0062 37.8839 38.4559 -10.0062
417 2 37.8325 39.7507 7.11429 37.8325 39.7507 -12.8857
418 1 38.9301 40.4789 9.13921 38.9301 40.4789 -10.8608
419 2 40.6798 39.4874 -9.33021 40.6798 39.4874 -9.33021
420 2 41.0397 40.8997 7.91747 41.0397 40.8997 -12.0825
421 1 41.8813 38.589 8.58753 41.8813 38.589 -11.4125
422 2 43.7728 37.752 10.006 43.7728 37.752 -9.99403
423 2 43.7679 38.995 6.88464 43.7679 38.995 -13.1154
424 1 44.879 39.8001 9.05386 44.879 39.8001 -10.9461
425 2 46.7852 38.9578 -9.41158 46.7852 38.9578 -9.41158
426 2 46.9443 40.0202 7.56472 46.9443 40.0202 -12.4353
427 1 47.5736 37.805 8.44571 47.5736 37.805 -11.5543
428 2 49.1117 37.0987 -9.72443 49.1117 37.0987 -9.72443
429 2 52.0127 36.4659 9.65979 52.0127 36.4659 -10.3402
430 1 48.1349 40.877 9.63105 48.1349 40.877 -10.3689
431 2 49.6686 39.7102 -8.60697 49.6686 39.7102 -8.60697
432 2 50.4427 41.0996 8.42692 50.4427 41.0996 -11.5731
433 1 51.3788 41.6369 -9.1709 -0.032002 41.6369 -9.1709
434 2 2.20835 41.2316 -7.89652 2.20835 41.2316 -7.89652
435 2 1.77462 42.1934 9.0076 1.77462 42.1934 -10.9924
436 1 3.24121 43.163 -9.08519 3.24121 43.163 -9.08519
437 2 5.02317 42.2918 -7.49729 5.02317 42.2918 -7.49729
438 2 5.3136 43.5414 9.58094 5.3136 43.5414 -10.4191
439 1 5.98841 41.3621 -9.52005 5.98841 41.3621 -9.52005
440 2 7.84876 40.8763 -7.85494 7.84876 40.8763 -7.85494
441 2 9.63519 40.636 10.075 9.63519 40.636 -9.92502
442 1 9.16324 42.8003 -8.81223 9.16324 42.8003 -8.81223
443 2 11.0823 42.3453 -7.32119 11.0823 42.3453 -7.32119
444 2 11.1021 43.2922 9.61362 11.1021 43.2922 -10.3864
445 1 12.0093 41.0615 -9.34603 12.0093 41.0615 -9.34603
446 2 14.4284 40.929 -8.39869 14.4284 40.929 -8.39869
447 2 13.3754 41.7568 8.64806 13.3754 41.7568 -11.3519
448 1 15.1304 43.0139 -9.65161 15.1304 43.0139 -9.65161
449 2 16.8977 41.9468 -8.07568 16.8977 41.9468 -8.07568
450 2 17.4103 43.9482 9.35147 17.4103 43.9482 -10.6485
451 1 18.1047 41.5328 -10.177 18.1047 41.5328 -10.177
452 2 19.501 40.486 -8.49162 19.501 40.486 -8.49162
453 2 20.5768 42.2372 8.99379 20.5768 42.2372 -11.0062
454 1 21.0998 42.508 -8.54717 21.0998 42.508 -8.54717
455 2 23.3955 42.182 -7.21882 23.3955 42.182 -7.21882
456 2 23.0155 43.2662 9.76232 23.0155 43.2662 -10.2377
457 1 24.1602 41.2285 -9.4723 24.1602 41.2285 -9.4723
458 2 28.0832 40.553 -8.62258 28.0832 40.553 -8.62258
459 2 26.1509 42.3087 9.00838 26.1509 42.3087 -10.9916
460 1 27.1692 42.8728 -8.75986 27.1692 42.8728 -8.75986
461 2 29.3235 42.714 -7.39873 29.3235 42.714 -7.39873
462 2 28.8165 43.805 9.55494 28.8165 43.805 -10.4451
463 1 30.1038 41.7819 -9.6542 30.1038 41.7819 -9.6542
464 2 32.329 41.4868 -8.3572 32.329 41.4868 -8.3572
465 2 31.7107 42.5001 8.57578 31.7107 42.5001 -11.4242
466 1 32.8782 43.6259 -9.53449 32.8782 43.6259 -9.53449
467 2 34.9547 43.2459 -8.30843 34.9547 43.2459 -8.30843
468 2 34.6557 44.2295 8.64472 34.6557 44.2295 -11.3553
469 1 35.972 42.3022 9.71304 35.972 42.3022 -10.287
470 2 38.0579 41.6477 -8.83095 38.0579 41.6477 -8.83095
471 2 38.1608 42.7229 8.13456 38.1608 42.7229 -11.8654
472 1 39.3282 43.8774 -9.65861 39.3282 43.8774 -9.65861
473 2 41.1242 42.9066 -7.98208 41.1242 42.9066 -7.98208
474 2 41.3248 43.7552 8.72537 41.3248 43.7552 -11.2746
475 1 42.0261 41.3908 10.1307 42.0261 41.3908 -9.86926
476 2 44.0868 40.328 -8.61688 44.0868 40.328 -8.61688
477 2 43.9062 42.507 8.74637 43.9062 42.507 -11.2536
478 1 41.2675 46.3725 8.74107 41.2675 46.3725 -11.2589
479 2 44.6775 43.99 -7.64723 44.6775 43.99 -7.64723
480 2 43.9356 45.6888 8.85995 43.9356 45.6888 -11.1401
481 1 45.4486 42.3079 -9.1956 45.4486 42.3079 -9.1956
482 2 47.6055 41.5224 -7.94161 47.6055 41.5224 -7.94161
483 2 47.0584 43.3913 9.25891 47.0584 43.3913 -10.7411
484 1 48.7287 43.6414 -8.8687 48.7287 43.6414 -8.8687
485 2 50.5489 43.1132 -7.32769 50.5489 43.1132 -7.32769
486 2 50.6887 43.8252 9.57035 50.6887 43.8252 -10.4297
487 1 51.8778 44.8607 -8.40222 0.467064 44.8607 -8.40222
488 2 2.30576 44.0828 -6.85515 2.30576 44.0828 -6.85515
489 2 2.50911 45.3853 10.1249 2.50911 45.3853 -9.87512
490 1 3.52277 46.1503 -7.62345 3.52277 46.1503 -7.62345
491 2 5.37216 45.2102 -6.14826 5.37216 45.2102 -6.14826
492 2 5.63241 46.7268 -9.00363 5.63241 46.7268 -9.00363
493 1 6.26397 44.4044 -8.28615 6.26397 44.4044 -8.28615
494 2 8.16478 43.5697 -6.72308 8.16478 43.5697 -6.72308
495 2 8.37059 45.0961 -9.60324 8.37059 45.0961 -9.60324
496 1 9.34135 45.797 -7.35217 9.34135 45.797 -7.35217
497 2 11.4835 45.1969 -6.20316 11.4835 45.1969 -6.20316
498 2 11.0982 46.4766 -9.04236 11.0982 46.4766 -9.04236
499 1 12.223 44.3652 -8.46691 12.223 44.3652 -8.46691
500 2 14.2898 43.5625 -7.22084 14.2898 43.5625 -7.22084
501 2 14.0476 45.3418 -9.9742 14.0476 45.3418 -9.9742
502 1 15.2118 45.8326 -7.72121 15.2118 45.8326 -7.72121
503 2 16.9471 44.9801 -6.1213 16.9471 44.9801 -6.1213
504 2 17.3139 46.4755 -9.00093 17.3139 46.4755 -9.00093
505 1 18.1683 44.2176 -8.26915 18.1683 44.2176 -8.26915
506 2 20.0148 43.5836 -6.57101 20.0148 43.5836 -6.57101
507 2 20.2848 44.7704 -9.63864 20.2848 44.7704 -9.63864
508 1 21.0892 45.6741 -7.36476 21.0892 45.6741 -7.36476
509 2 23.1386 45.1067 -6.04398 23.1386 45.1067 -6.04398
510 2 22.9171 46.4731 -8.87797 22.9171 46.4731 -8.87797
511 1 24.0831 44.344 -8.31192 24.0831 44.344 -8.31192
512 2 26.1095 43.9014 -6.65279 26.1095 43.9014 -6.65279
513 2 25.9913 44.9138 10.1598 25.9913 44.9138 -9.84018
514 1 26.9669 46.1175 -7.75531 26.9669 46.1175 -7.75531
515 2 29.0081 45.7846 -6.34036 29.0081 45.7846 -6.34036
516 2 28.7469 46.7618 -9.38944 28.7469 46.7618 -9.38944
517 1 29.9952 44.8016 -8.49735 29.9952 44.8016 -8.49735
518 2 32.1127 44.3129 -7.34926 32.1127 44.3129 -7.34926
519 2 31.5989 45.5336 9.72546 31.5989 45.5336 -10.2745
520 1 32.6398 46.5924 -8.22171 32.6398 46.5924 -8.22171
521 2 34.8442 45.9407 -7.11043 34.8442 45.9407 -7.11043
522 2 34.159 47.4158 -9.97701 34.159 47.4158 -9.97701
523 1 35.6756 45.3646 -9.44843 35.6756 45.3646 -9.44843
524 2 37.8564 45.063 -7.87964 37.8564 45.063 -7.87964
525 2 36.5752 46.9339 8.85061 36.5752 46.9339 -11.1494
526 1 38.4757 47.027 -9.45361 38.4757 47.027 -9.45361
527 2 41.1696 46.0692 -8.82076 41.1696 46.0692 -8.82076
528 2 38.8112 45.4969 8.60159 38.8112 45.4969 -11.3984
529 1 42.907 44.2458 -9.35657 42.907 44.2458 -9.35657
530 2 39.4406 47.4815 -7.20901 39.4406 47.4815 -7.20901
531 2 39.8945 48.5654 9.0409 39.8945 48.5654 -10.9591
532 1 43.7388 47.5095 -9.40281 43.7388 47.5095 -9.40281
533 2 45.0915 46.6943 -7.37291 45.0915 46.6943 -7.37291
534 2 45.951 47.6896 9.59765 45.951 47.6896 -10.4024
535 1 46.0853 45.4577 -9.19824 46.0853 45.4577 -9.19824
536 2 47.5382 44.9084 -7.11064 47.5382 44.9084 -7.11064
537 2 48.3069 45.6571 9.721 48.3069 45.6571 -10.279
538 1 49.1143 46.7381 -8.08694 49.1143 46.7381 -8.08694
539 2 50.8823 46.0662 -6.39346 50.8823 46.0662 -6.39346
540 2 51.1848 47.0153 -9.49722 51.1848 47.0153 -9.49722