ITEM: TIMESTEP
5964000
ITEM: NUMBER OF ATOMS
810
ITEM: BOX BOUNDS pp pp pp
8.0341777045796159e-01 5.2214187229542503e+01
-1.3926624254456794e+01 6.4942839254455663e+01
-1.0000000000000000e+01 1.0000000000000000e+01
ITEM: ATOMS id type x y z xu yu zu
1 1 0.962472 63.5201 1.18022 0.962472 -15.3493 1.18022
2 2 2.77666 62.4998 2.50916 2.77666 -16.3696 2.50916
3 2 2.99128 64.3727 -0.125776 2.99128 -14.4968 -0.125776
4 1 3.85411 64.7228 2.25226 3.85411 -14.1466 2.25226
5 2 5.80118 63.7134 3.55201 5.80118 -15.1561 3.55201
6 2 5.83709 -13.263 0.908446 5.83709 -13.263 0.908446
7 1 6.69643 63.2271 1.31914 6.69643 -15.6424 1.31914
8 2 8.76045 62.2598 2.46467 8.76045 -16.6097 2.46467
9 2 8.45814 64.3584 -0.0227924 8.45814 -14.511 -0.0227924
10 1 9.56608 64.6549 2.29129 9.56608 -14.2146 2.29129
11 2 11.5021 63.8555 3.64795 11.5021 -15.014 3.64795
12 2 11.3781 -13.1908 0.860891 11.3781 -13.1908 0.860891
13 1 12.3795 63.401 1.2929 12.3795 -15.4685 1.2929
14 2 14.3711 62.5529 2.64073 14.3711 -16.3166 2.64073
15 2 14.1913 64.2742 -0.224721 14.1913 -14.5953 -0.224721
16 1 15.3024 64.856 2.06169 15.3024 -14.0135 2.06169
17 2 17.2426 63.9675 3.47666 17.2426 -14.902 3.47666
18 2 17.172 -13.0528 0.794093 17.172 -13.0528 0.794093
19 1 18.0844 63.3982 1.15687 18.0844 -15.4712 1.15687
20 2 19.9456 62.5548 2.5773 19.9456 -16.3147 2.5773
21 2 20.061 64.3128 -0.180498 20.061 -14.5567 -0.180498
22 1 21.0921 -14.0817 2.03298 21.0921 -14.0817 2.03298
23 2 22.9698 63.9859 3.53508 22.9698 -14.8835 3.53508
24 2 22.8976 -13.2105 0.698025 22.8976 -13.2105 0.698025
25 1 23.8992 63.3218 1.29 23.8992 -15.5477 1.29
26 2 25.7626 62.436 2.69814 25.7626 -16.4334 2.69814
27 2 25.8441 64.3475 0.00949047 25.8441 -14.522 0.00949047
28 1 26.6847 64.8448 2.41173 26.6847 -14.0246 2.41173
29 2 28.7461 64.1575 3.74863 28.7461 -14.712 3.74863
30 2 28.545 -13.101 1.00373 28.545 -13.101 1.00373
31 1 29.6028 63.52 1.41387 29.6028 -15.3495 1.41387
32 2 31.7382 62.8575 2.60641 31.7382 -16.012 2.60641
33 2 31.2783 64.5263 -0.104429 31.2783 -14.3432 -0.104429
34 1 32.3872 -13.7201 2.0559 32.3872 -13.7201 2.0559
35 2 34.4112 64.1755 3.24371 34.4112 -14.694 3.24371
36 2 34.236 -12.6626 0.709081 34.236 -12.6626 0.709081
37 1 35.2229 63.8986 0.837167 35.2229 -14.9709 0.837167
38 2 37.2753 62.9188 2.04197 37.2753 -15.9506 2.04197
39 2 37.0849 64.9019 -0.50655 37.0849 -13.9676 -0.50655
40 1 38.1657 -13.5791 1.74381 38.1657 -13.5791 1.74381
41 2 40.0785 64.2983 3.14421 40.0785 -14.5712 3.14421
42 2 40.0745 -12.6008 0.564349 40.0745 -12.6008 0.564349
43 1 41.0214 63.8912 0.855063 41.0214 -14.9783 0.855063
44 2 42.9669 62.8893 2.12392 42.9669 -15.9802 2.12392
45 2 42.9179 -13.9488 -0.44992 42.9179 -13.9488 -0.44992
46 1 43.8925 -13.7196 1.96377 43.8925 -13.7196 1.96377
47 2 45.9092 64.2725 3.23159 45.9092 -14.597 3.23159
48 2 45.786 -12.6212 0.644835 45.786 -12.6212 0.644835
49 1 46.6623 63.8684 0.967761 46.6623 -15.001 0.967761
50 2 48.5905 62.9516 2.41082 48.5905 -15.9178 2.41082
51 2 48.5764 64.6509 -0.410845 48.5764 -14.2186 -0.410845
52 1 49.5502 -13.6856 1.85604 49.5502 -13.6856 1.85604
53 2 51.1821 64.0378 3.38735 51.1821 -14.8317 3.38735
54 2 51.6486 -13.0014 0.682746 51.6486 -13.0014 0.682746
55 1 0.90967 -12.7066 3.04697 0.90967 -12.7066 3.04697
56 2 2.7729 -13.6989 4.47046 2.7729 -13.6989 4.47046
57 2 2.95343 -11.8308 1.89299 2.95343 -11.8308 1.89299
58 1 3.81279 -11.4452 4.17868 3.81279 -11.4452 4.17868
59 2 5.60242 -12.4287 5.4182 5.60242 -12.4287 5.4182
60 2 5.75608 -10.518 2.95982 5.75608 -10.518 2.95982
61 1 6.71284 -12.8181 3.16603 6.71284 -12.8181 3.16603
62 2 8.59595 -13.8037 4.53128 8.59595 -13.8037 4.53128
63 2 8.67852 -12.0018 1.79734 8.67852 -12.0018 1.79734
64 1 9.59499 -11.4705 4.13227 9.59499 -11.4705 4.13227
65 2 11.5753 -12.5143 5.41131 11.5753 -12.5143 5.41131
66 2 11.426 -10.4744 2.84048 11.426 -10.4744 2.84048
67 1 12.4054 -12.7431 3.04021 12.4054 -12.7431 3.04021
68 2 14.4216 -13.6293 4.34689 14.4216 -13.6293 4.34689
69 2 14.1999 -11.7622 1.64297 14.1999 -11.7622 1.64297
70 1 15.3115 -11.3408 3.93577 15.3115 -11.3408 3.93577
71 2 17.2625 -12.4212 5.20783 17.2625 -12.4212 5.20783
72 2 17.295 -10.2504 2.68549 17.295 -10.2504 2.68549
73 1 18.2206 -12.6367 3.03201 18.2206 -12.6367 3.03201
74 2 20.1497 -13.591 4.31277 20.1497 -13.591 4.31277
75 2 20.0033 -11.7223 1.54808 20.0033 -11.7223 1.54808
76 1 21.0181 -11.2434 3.84932 21.0181 -11.2434 3.84932
77 2 22.8784 -12.3499 5.25192 22.8784 -12.3499 5.25192
78 2 22.9627 -10.1322 2.89018 22.9627 -10.1322 2.89018
79 1 23.8937 -12.5479 2.99671 23.8937 -12.5479 2.99671
80 2 25.5496 -13.4847 4.48188 25.5496 -13.4847 4.48188
81 2 25.9392 -11.7618 1.79643 25.9392 -11.7618 1.79643
82 1 26.6116 -11.253 4.10547 26.6116 -11.253 4.10547
83 2 28.6511 -12.0271 5.38901 28.6511 -12.0271 5.38901
84 2 28.4383 -10.2692 2.74759 28.4383 -10.2692 2.74759
85 1 29.589 -12.5444 3.16218 29.589 -12.5444 3.16218
86 2 31.6589 -13.2625 4.44264 31.6589 -13.2625 4.44264
87 2 31.2804 -11.4714 1.58136 31.2804 -11.4714 1.58136
88 1 32.4511 -10.8785 3.84192 32.4511 -10.8785 3.84192
89 2 34.302 -11.9968 5.20081 34.302 -11.9968 5.20081
90 2 34.495 -10.0054 2.5604 34.495 -10.0054 2.5604
91 1 35.3668 -12.3792 2.94874 35.3668 -12.3792 2.94874
92 2 37.4433 -13.2617 4.14329 37.4433 -13.2617 4.14329
93 2 37.12 -11.2481 1.62039 37.12 -11.2481 1.62039
94 1 38.2172 -10.9825 3.81586 38.2172 -10.9825 3.81586
95 2 39.9502 -11.9774 5.25531 39.9502 -11.9774 5.25531
96 2 40.2321 -9.97054 2.61248 40.2321 -9.97054 2.61248
97 1 41.0491 -12.2926 2.86064 41.0491 -12.2926 2.86064
98 2 42.9031 -13.3753 4.19927 42.9031 -13.3753 4.19927
99 2 43.096 -11.4192 1.54882 43.096 -11.4192 1.54882
100 1 43.8723 -11.0432 3.9315 43.8723 -11.0432 3.9315
101 2 45.8185 -12.0072 5.15883 45.8185 -12.0072 5.15883
102 2 45.7863 -10.0138 2.60943 45.7863 -10.0138 2.60943
103 1 46.7624 -12.2728 2.81841 46.7624 -12.2728 2.81841
104 2 48.6011 -13.1986 4.14096 48.6011 -13.1986 4.14096
105 2 48.6128 -11.4628 1.46332 48.6128 -11.4628 1.46332
106 1 49.5878 -10.9983 3.67443 49.5878 -10.9983 3.67443
107 2 51.3205 -12.0931 5.20409 51.3205 -12.0931 5.20409
108 2 51.7168 -10.2468 2.58264 51.7168 -10.2468 2.58264
109 1 1.00334 -9.92945 4.89896 1.00334 -9.92945 4.89896
110 2 2.77694 -10.9099 6.50933 2.77694 -10.9099 6.50933
111 2 3.01412 -9.14605 3.67191 3.01412 -9.14605 3.67191
112 1 3.91513 -8.76646 6.00857 3.91513 -8.76646 6.00857
113 2 5.60629 -9.79409 7.54612 5.60629 -9.79409 7.54612
114 2 5.85488 -7.87854 4.8983 5.85488 -7.87854 4.8983
115 1 6.76891 -10.1702 5.24704 6.76891 -10.1702 5.24704
116 2 8.73131 -11.1825 6.46 8.73131 -11.1825 6.46
117 2 8.59258 -9.27614 3.9258 8.59258 -9.27614 3.9258
118 1 9.58768 -8.89091 6.15407 9.58768 -8.89091 6.15407
119 2 11.4126 -9.93294 7.50241 11.4126 -9.93294 7.50241
120 2 11.571 -7.83676 4.90555 11.571 -7.83676 4.90555
121 1 12.4482 -10.1913 5.16608 12.4482 -10.1913 5.16608
122 2 14.4838 -11.1152 6.30969 14.4838 -11.1152 6.30969
123 2 14.1216 -9.07438 3.78473 14.1216 -9.07438 3.78473
124 1 15.281 -8.68813 6.00593 15.281 -8.68813 6.00593
125 2 17.1612 -9.74695 7.26474 17.1612 -9.74695 7.26474
126 2 17.4211 -7.60768 4.85369 17.4211 -7.60768 4.85369
127 1 18.1329 -10.0556 5.0083 18.1329 -10.0556 5.0083
128 2 20.1622 -11.0556 6.2017 20.1622 -11.0556 6.2017
129 2 19.92 -9.02365 3.65435 19.92 -9.02365 3.65435
130 1 20.9139 -8.76931 5.98363 20.9139 -8.76931 5.98363
131 2 22.7807 -9.59389 7.47162 22.7807 -9.59389 7.47162
132 2 22.9225 -7.83136 4.73124 22.9225 -7.83136 4.73124
133 1 23.8913 -10.0744 5.23922 23.8913 -10.0744 5.23922
134 2 25.8347 -11.0462 6.46956 25.8347 -11.0462 6.46956
135 2 25.7511 -8.95307 3.88763 25.7511 -8.95307 3.88763
136 1 26.7347 -8.73746 6.25999 26.7347 -8.73746 6.25999
137 2 28.6769 -9.90332 7.28601 28.6769 -9.90332 7.28601
138 2 28.506 -7.44956 5.06056 28.506 -7.44956 5.06056
139 1 29.5034 -9.73756 4.9748 29.5034 -9.73756 4.9748
140 2 31.5261 -10.7499 6.13736 31.5261 -10.7499 6.13736
141 2 31.4089 -8.70468 3.62385 31.4089 -8.70468 3.62385
142 1 32.4196 -8.43284 5.95417 32.4196 -8.43284 5.95417
143 2 34.2801 -9.53074 7.17344 34.2801 -9.53074 7.17344
144 2 34.3334 -7.40346 4.63928 34.3334 -7.40346 4.63928
145 1 35.319 -9.68977 4.8862 35.319 -9.68977 4.8862
146 2 37.1727 -10.851 6.20208 37.1727 -10.851 6.20208
147 2 37.2558 -8.57276 3.79702 37.2558 -8.57276 3.79702
148 1 38.1175 -8.56807 6.16019 38.1175 -8.56807 6.16019
149 2 40.084 -9.68893 7.46166 40.084 -9.68893 7.46166
150 2 40.0353 -7.58658 4.80943 40.0353 -7.58658 4.80943
151 1 41.1424 -9.82121 5.0496 41.1424 -9.82121 5.0496
152 2 43.0586 -10.7758 6.28886 43.0586 -10.7758 6.28886
153 2 43.0947 -8.74334 3.70449 43.0947 -8.74334 3.70449
154 1 43.9942 -8.48631 6.01766 43.9942 -8.48631 6.01766
155 2 46.0953 -9.34039 7.13947 46.0953 -9.34039 7.13947
156 2 45.7441 -7.40414 4.49593 45.7441 -7.40414 4.49593
157 1 46.7927 -9.68664 4.80703 46.7927 -9.68664 4.80703
158 2 48.6032 -10.8916 6.05124 48.6032 -10.8916 6.05124
159 2 48.619 -8.61773 3.67789 48.619 -8.61773 3.67789
160 1 49.5899 -8.62462 5.9528 49.5899 -8.62462 5.9528
161 2 51.5513 -9.51132 7.20193 51.5513 -9.51132 7.20193
162 2 51.3802 -7.59775 4.58716 51.3802 -7.59775 4.58716
163 1 0.987142 -7.22821 6.75285 0.987142 -7.22821 6.75285
164 2 2.78188 -8.35771 8.28631 2.78188 -8.35771 8.28631
165 2 2.98426 -6.38845 5.67973 2.98426 -6.38845 5.67973
166 1 3.91226 -6.13821 8.01326 3.91226 -6.13821 8.01326
167 2 5.63295 -7.23467 9.50877 5.63295 -7.23467 9.50877
168 2 5.95962 -5.1585 7.02352 5.95962 -5.1585 7.02352
169 1 6.69792 -7.55221 7.30304 6.69792 -7.55221 7.30304
170 2 8.60136 -8.76906 8.3885 8.60136 -8.76906 8.3885
171 2 8.58059 -6.58447 5.95408 8.58059 -6.58447 5.95408
172 1 9.59536 -6.40596 8.22946 9.59536 -6.40596 8.22946
173 2 11.4052 -7.52628 9.577 11.4052 -7.52628 9.577
174 2 11.5973 -5.13794 7.2294 11.5973 -5.13794 7.2294
175 1 12.3903 -7.60813 7.30036 12.3903 -7.60813 7.30036
176 2 14.4224 -8.60436 8.41999 14.4224 -8.60436 8.41999
177 2 14.2359 -6.44705 5.93968 14.2359 -6.44705 5.93968
178 1 15.2504 -6.26696 8.28335 15.2504 -6.26696 8.28335
179 2 17.0782 -7.41189 9.39616 17.0782 -7.41189 9.39616
180 2 17.0982 -5.15551 7.05208 17.0982 -5.15551 7.05208
181 1 18.194 -7.47399 7.13838 18.194 -7.47399 7.13838
182 2 19.9778 -8.6721 8.29271 19.9778 -8.6721 8.29271
183 2 20.0351 -6.45701 5.88383 20.0351 -6.45701 5.88383
184 1 20.9477 -6.29361 8.30001 20.9477 -6.29361 8.30001
185 2 23.0357 -7.17251 9.42393 23.0357 -7.17251 9.42393
186 2 22.6531 -5.06925 6.92492 22.6531 -5.06925 6.92492
187 1 23.822 -7.36672 7.04294 23.822 -7.36672 7.04294
188 2 25.6776 -8.40845 8.47264 25.6776 -8.40845 8.47264
189 2 25.8602 -6.4293 6.01591 25.8602 -6.4293 6.01591
190 1 26.702 -6.16737 8.31712 26.702 -6.16737 8.31712
191 2 28.6564 -7.27732 9.55072 28.6564 -7.27732 9.55072
192 2 28.7357 -5.25715 7.05901 28.7357 -5.25715 7.05901
193 1 29.5661 -7.5118 7.35872 29.5661 -7.5118 7.35872
194 2 31.6713 -8.46539 8.32857 31.6713 -8.46539 8.32857
195 2 31.2627 -6.23218 5.96208 31.2627 -6.23218 5.96208
196 1 32.4856 -6.03288 8.24638 32.4856 -6.03288 8.24638
197 2 34.435 -7.07782 9.38677 34.435 -7.07782 9.38677
198 2 34.388 -4.91385 7.04444 34.388 -4.91385 7.04444
199 1 35.3083 -7.25229 7.01669 35.3083 -7.25229 7.01669
200 2 37.157 -8.33075 8.3834 37.157 -8.33075 8.3834
201 2 37.3331 -6.15 6.00644 37.3331 -6.15 6.00644
202 1 38.1409 -6.00964 8.26476 38.1409 -6.00964 8.26476
203 2 40.0185 -7.00309 9.5831 40.0185 -7.00309 9.5831
204 2 40.0744 -4.96864 7.08259 40.0744 -4.96864 7.08259
205 1 41.1278 -7.36531 7.19579 41.1278 -7.36531 7.19579
206 2 43.1205 -8.31417 8.36797 43.1205 -8.31417 8.36797
207 2 42.9802 -6.22281 5.7896 42.9802 -6.22281 5.7896
208 1 43.8998 -5.91094 8.0332 43.8998 -5.91094 8.0332
209 2 45.9382 -6.76978 9.19851 45.9382 -6.76978 9.19851
210 2 45.6493 -4.89042 6.5069 45.6493 -4.89042 6.5069
211 1 46.8216 -7.09205 6.74085 46.8216 -7.09205 6.74085
212 2 48.6569 -8.10218 8.18412 48.6569 -8.10218 8.18412
213 2 48.7048 -6.32597 5.45595 48.7048 -6.32597 5.45595
214 1 49.6021 -5.86438 7.68341 49.6021 -5.86438 7.68341
215 2 51.4411 -6.89122 9.03974 51.4411 -6.89122 9.03974
216 2 51.6228 -4.87971 6.48933 51.6228 -4.87971 6.48933
217 1 1.0622 -4.69546 8.87311 1.0622 -4.69546 8.87311
218 2 2.78825 -5.83858 -9.74248 2.78825 -5.83858 10.2575
219 2 3.18492 -3.80565 7.75827 3.18492 -3.80565 7.75827
220 1 3.95435 -3.60383 10.1633 3.95435 -3.60383 10.1633
221 2 5.57863 -4.87344 -8.43607 5.57863 -4.87344 11.5639
222 2 5.92799 -2.57991 9.35574 5.92799 -2.57991 9.35574
223 1 6.71463 -5.00749 9.33847 6.71463 -5.00749 9.33847
224 2 8.5558 -6.35715 -9.47824 8.5558 -6.35715 10.5218
225 2 8.79423 -4.08693 8.20566 8.79423 -4.08693 8.20566
226 1 9.57717 -4.1686 -9.31608 9.57717 -4.1686 10.6839
227 2 11.4299 -5.32627 -8.14078 11.4299 -5.32627 11.8592
228 2 11.6348 -2.95537 9.64526 11.6348 -2.95537 9.64526
229 1 12.5075 -5.30917 9.59374 12.5075 -5.30917 9.59374
230 2 14.3307 -6.52382 -9.33658 14.3307 -6.52382 10.6634
231 2 14.3554 -4.00636 8.50358 14.3554 -4.00636 8.50358
232 1 15.2808 -4.21817 -9.11185 15.2808 -4.21817 10.8881
233 2 17.1969 -5.33699 -8.21076 17.1969 -5.33699 11.7892
234 2 17.1463 -2.85947 9.68938 17.1463 -2.85947 9.68938
235 1 18.0922 -5.22264 9.48613 18.0922 -5.22264 9.48613
236 2 20.1257 -6.22639 -9.34056 20.1257 -6.22639 10.6594
237 2 19.8393 -3.98441 8.29587 19.8393 -3.98441 8.29587
238 1 20.8682 -3.86456 -9.42857 20.8682 -3.86456 10.5714
239 2 22.9767 -4.64115 -8.4306 22.9767 -4.64115 11.5694
240 2 22.5231 -2.7387 9.0164 22.5231 -2.7387 9.0164
241 1 23.8207 -4.84554 9.17666 23.8207 -4.84554 9.17666
242 2 25.6953 -5.83807 -9.34464 25.6953 -5.83807 10.6554
243 2 25.7998 -3.81446 8.05492 25.7998 -3.81446 8.05492
244 1 26.5989 -3.5599 -9.60521 26.5989 -3.5599 10.3948
245 2 28.5888 -4.53098 -8.307 28.5888 -4.53098 11.693
246 2 28.5087 -2.67082 8.93171 28.5087 -2.67082 8.93171
247 1 29.6441 -5.00865 9.43508 29.6441 -5.00865 9.43508
248 2 31.6932 -6.05744 -9.4185 31.6932 -6.05744 10.5815
249 2 31.4828 -3.65199 8.28481 31.4828 -3.65199 8.28481
250 1 32.4841 -3.64051 -9.44152 32.4841 -3.64051 10.5585
251 2 34.433 -4.79464 -8.28569 34.433 -4.79464 11.7143
252 2 34.418 -2.44302 9.30127 34.418 -2.44302 9.30127
253 1 35.3868 -4.88543 9.38338 35.3868 -4.88543 9.38338
254 2 37.21 -5.92487 -9.36122 37.21 -5.92487 10.6388
255 2 37.1444 -3.697 8.1095 37.1444 -3.697 8.1095
256 1 38.1625 -3.59995 -9.61016 38.1625 -3.59995 10.3898
257 2 40.0401 -4.75243 -8.40111 40.0401 -4.75243 11.5989
258 2 40.1615 -2.41493 9.44888 40.1615 -2.41493 9.44888
259 1 41.0665 -4.81789 9.35905 41.0665 -4.81789 9.35905
260 2 43.196 -5.74118 -9.64491 43.196 -5.74118 10.3551
261 2 42.809 -3.70736 7.83693 42.809 -3.70736 7.83693
262 1 43.9024 -3.32758 -9.96583 43.9024 -3.32758 10.0342
263 2 45.9944 -4.3565 -8.89644 45.9944 -4.3565 11.1036
264 2 45.6809 -2.27338 8.66378 45.6809 -2.27338 8.66378
265 1 46.7617 -4.48215 8.67493 46.7617 -4.48215 8.67493
266 2 48.6658 -5.53244 -10.0289 48.6658 -5.53244 9.97111
267 2 48.6518 -3.5927 7.29101 48.6518 -3.5927 7.29101
268 1 49.577 -3.16598 9.57371 49.577 -3.16598 9.57371
269 2 51.2442 -4.21915 -8.99155 51.2442 -4.21915 11.0084
270 2 51.807 -2.38057 8.46838 51.807 -2.38057 8.46838
271 1 1.03309 -2.06883 -9.14518 1.03309 -2.06883 10.8548
272 2 2.57086 -3.26461 -7.70537 2.57086 -3.26461 12.2946
273 2 3.18275 -1.29825 9.80624 3.18275 -1.29825 9.80624
274 1 3.88022 -1.06755 -7.80593 3.88022 -1.06755 12.1941
275 2 5.28341 -2.53931 -6.3031 5.28341 -2.53931 13.6969
276 2 6.16105 -0.297385 -8.45248 6.16105 -0.297385 11.5475
277 1 6.73591 -2.75701 -8.32786 6.73591 -2.75701 11.6721
278 2 8.38426 -4.05889 -7.07412 8.38426 -4.05889 12.9259
279 2 8.77973 -1.76992 -9.3308 8.77973 -1.76992 10.6692
280 1 9.45992 -1.76203 -6.94621 9.45992 -1.76203 13.0538
281 2 11.3383 -2.97185 -5.81393 11.3383 -2.97185 14.1861
282 2 11.3824 -0.66456 -8.03096 11.3824 -0.66456 11.969
283 1 12.4182 -2.99526 -8.0187 12.4182 -2.99526 11.9813
284 2 14.2487 -4.1676 -6.8534 14.2487 -4.1676 13.1466
285 2 14.3352 -1.95718 -9.18807 14.3352 -1.95718 10.8119
286 1 15.196 -1.952 -6.82304 15.196 -1.952 13.177
287 2 17.0249 -3.35673 -5.7285 17.0249 -3.35673 14.2715
288 2 17.2582 -0.652006 -7.46336 17.2582 -0.652006 12.5366
289 1 18.089 -2.9711 -8.02363 18.089 -2.9711 11.9764
290 2 20.2172 -3.78313 -7.03518 20.2172 -3.78313 12.9648
291 2 19.7011 -1.64476 -9.39395 19.7011 -1.64476 10.606
292 1 20.8668 -1.37957 -7.16588 20.8668 -1.37957 12.8341
293 2 23.1459 -2.11372 -6.31605 23.1459 -2.11372 13.684
294 2 22.5031 -0.00328435 -8.72589 22.5031 -0.00328435 11.2741
295 1 23.7092 -2.27719 -8.68258 23.7092 -2.27719 11.3174
296 2 25.5296 -3.36452 -7.37343 25.5296 -3.36452 12.6266
297 2 25.6654 -1.2582 -9.90676 25.6654 -1.2582 10.0932
298 1 26.5876 -1.03204 -7.63122 26.5876 -1.03204 12.3688
299 2 28.4679 -2.10985 -6.36233 28.4679 -2.10985 13.6377
300 2 28.715 0.0181603 -8.77219 28.715 0.0181603 11.2278
301 1 29.6344 -2.29168 -8.61454 29.6344 -2.29168 11.3855
302 2 31.3095 -3.35283 -7.26053 31.3095 -3.35283 12.7395
303 2 31.6697 -1.3265 -9.67935 31.6697 -1.3265 10.3207
304 1 32.3898 -1.05502 -7.27123 32.3898 -1.05502 12.7288
305 2 34.2163 -2.41895 -6.08749 34.2163 -2.41895 13.9125
306 2 34.4439 -0.142668 -8.48151 34.4439 -0.142668 11.5185
307 1 35.3829 -2.48159 -8.36687 35.3829 -2.48159 11.6331
308 2 37.6896 -2.48907 -7.3827 37.6896 -2.48907 12.6173
309 2 37.12 -1.3749 10.1861 37.12 -1.3749 10.1861
310 1 38.4599 36.8926 4.70823 38.4599 36.8926 -15.2918
311 2 39.2654 34.5025 4.53482 39.2654 34.5025 -15.4652
312 2 40.6209 37.8852 4.0877 40.6209 37.8852 -15.9123
313 1 41.4448 35.4503 3.89839 41.4448 35.4503 -16.1016
314 2 41.4154 34.9231 6.30739 41.4154 34.9231 -13.6926
315 2 43.3091 33.7628 4.22499 43.3091 33.7628 -15.775
316 1 43.9228 35.3485 6.0513 43.9228 35.3485 -13.9487
317 2 46.1232 34.3952 6.74766 46.1232 34.3952 -13.2523
318 2 45.6645 35.792 4.29462 45.6645 35.792 -15.7054
319 1 46.7243 -1.94596 -9.07953 46.7243 -1.94596 10.9205
320 2 48.725 -2.92478 -8.01322 48.725 -2.92478 11.9868
321 2 48.5955 -0.981086 9.39419 48.5955 -0.981086 9.39419
322 1 49.5148 -0.595393 -8.2252 49.5148 -0.595393 11.7748
323 2 51.3433 -1.70493 -6.90764 51.3433 -1.70493 13.0924
324 2 51.4272 0.263867 -9.43259 51.4272 0.263867 10.5674
325 1 0.93847 0.577124 -7.0375 0.93847 0.577124 12.9625
326 2 2.52103 -0.752737 -5.66386 2.52103 -0.752737 14.3361
327 2 3.21243 1.28352 -8.04439 3.21243 1.28352 11.9556
328 1 3.83231 1.46342 -5.64413 3.83231 1.46342 14.3559
329 2 5.17171 0.101838 -4.02209 5.17171 0.101838 15.9779
330 2 6.12551 1.94135 -6.48275 6.12551 1.94135 13.5173
331 1 6.56244 -0.474051 -6.00665 6.56244 -0.474051 13.9934
332 2 8.29377 -1.92312 -4.83254 8.29377 -1.92312 15.1675
333 2 8.6758 0.582083 -6.85447 8.6758 0.582083 13.1455
334 1 9.35098 0.222853 -4.33277 9.35098 0.222853 15.6672
335 2 11.5284 -0.903669 -3.45404 11.5284 -0.903669 16.546
336 2 11.2174 1.53935 -5.49674 11.2174 1.53935 14.5033
337 1 12.3301 -0.670218 -5.73419 12.3301 -0.670218 14.2658
338 2 14.1679 -1.9757 -4.52971 14.1679 -1.9757 15.4703
339 2 14.2298 0.367066 -6.89514 14.2298 0.367066 13.1049
340 1 15.1555 0.447279 -4.53139 15.1555 0.447279 15.4686
341 2 16.5852 -0.988214 -3.11019 16.5852 -0.988214 16.8898
342 2 17.4402 1.27938 -4.96298 17.4402 1.27938 15.037
343 1 18.0746 -1.15095 -5.13257 18.0746 -1.15095 14.8674
344 2 20.5683 -2.07974 -4.75987 20.5683 -2.07974 15.2401
345 2 19.6851 0.74855 -6.45766 19.6851 0.74855 13.5423
346 1 20.9452 0.383046 -4.29558 20.9452 0.383046 15.7044
347 2 23.3824 -0.25194 -4.06957 23.3824 -0.25194 15.9304
348 2 22.0287 2.14261 -5.75276 22.0287 2.14261 14.2472
349 1 23.6997 0.397269 -6.58993 23.6997 0.397269 13.4101
350 2 25.7167 -0.933787 -5.38648 25.7167 -0.933787 14.6135
351 2 25.9992 1.3288 -7.74787 25.9992 1.3288 12.2521
352 1 26.6342 1.36522 -5.28899 26.6342 1.36522 14.711
353 2 28.4699 -0.105034 -4.2333 28.4699 -0.105034 15.7667
354 2 28.6324 2.56455 -5.95218 28.6324 2.56455 14.0478
355 1 29.5255 0.268455 -6.42562 29.5255 0.268455 13.5744
356 2 31.5086 0.0530362 -5.12022 31.5086 0.0530362 14.8798
357 2 31.3442 1.18872 -7.87398 31.3442 1.18872 12.126
358 1 33.1161 39.5101 6.8361 33.1161 39.5101 -13.1639
359 2 36.4343 38.2783 8.10032 36.4343 38.2783 -11.8997
360 2 35.0378 40.5489 5.86271 35.0378 40.5489 -14.1373
361 1 35.7617 38.2109 5.80954 35.7617 38.2109 -14.1905
362 2 38.924 36.6449 7.03324 38.924 36.6449 -12.9668
363 2 37.7659 39.2385 4.92686 37.7659 39.2385 -15.0731
364 1 38.7019 39.1612 7.23377 38.7019 39.1612 -12.7662
365 2 40.5349 38.2621 8.79948 40.5349 38.2621 -11.2005
366 2 40.7935 39.8696 5.96711 40.7935 39.8696 -14.0329
367 1 41.34 37.4064 6.45899 41.34 37.4064 -13.541
368 2 43.1348 36.8119 8.05864 43.1348 36.8119 -11.9414
369 2 43.3063 37.3029 4.75656 43.3063 37.3029 -15.2434
370 1 44.3412 38.7894 6.84928 44.3412 38.7894 -13.1507
371 2 45.9929 37.6653 8.39372 45.9929 37.6653 -11.6063
372 2 46.6652 39.1229 5.57636 46.6652 39.1229 -14.4236
373 1 46.885 36.7344 6.28936 46.885 36.7344 -13.7106
374 2 48.745 35.7736 7.70524 48.745 35.7736 -12.2948
375 2 49.3176 40.0076 6.19847 49.3176 40.0076 -13.8015
376 1 50.0291 37.5843 6.75393 50.0291 37.5843 -13.2461
377 2 48.838 37.0741 4.7391 48.838 37.0741 -15.2609
378 2 51.4932 38.5194 5.10454 51.4932 38.5194 -14.8955
379 1 50.7285 40.4583 8.28582 -0.68226 40.4583 -11.7142
380 2 1.05026 40.688 -9.74477 1.05026 40.688 -9.74477
381 2 1.2785 40.7604 6.80579 1.2785 40.7604 -13.1942
382 1 2.73718 41.8964 8.78609 2.73718 41.8964 -11.2139
383 2 4.81257 41.2172 -9.56325 4.81257 41.2172 -9.56325
384 2 3.27111 39.453 8.61141 3.27111 39.453 -11.3886
385 1 6.44843 2.20202 -3.9125 6.44843 2.20202 16.0875
386 2 7.64431 0.63449 -2.50194 7.64431 0.63449 17.4981
387 2 8.78908 2.6714 -4.48307 8.78908 2.6714 15.5169
388 1 9.04339 2.67211 -2.11368 9.04339 2.67211 17.8863
389 2 10.285 0.585918 -1.75212 10.285 0.585918 18.2479
390 2 11.1852 3.70065 -3.00804 11.1852 3.70065 16.992
391 1 12.2471 1.41614 -3.17422 12.2471 1.41614 16.8258
392 2 15.1026 1.70548 -2.32698 15.1026 1.70548 17.673
393 2 13.8293 2.58612 -4.63829 13.8293 2.58612 15.3617
394 1 15.0086 42.3491 7.93118 15.0086 42.3491 -12.0688
395 2 17.1527 41.5058 9.16175 17.1527 41.5058 -10.8382
396 2 16.3954 44.309 7.26687 16.3954 44.309 -12.7331
397 1 17.6719 1.18024 -2.59066 17.6719 1.18024 17.4093
398 2 19.2712 -0.9142 -2.7923 19.2712 -0.9142 17.2077
399 2 21.68 1.64512 -2.28085 21.68 1.64512 17.7191
400 1 20.956 41.9702 8.5827 20.956 41.9702 -11.4173
401 2 22.2317 42.1751 -9.36551 22.2317 42.1751 -9.36551
402 2 23.1881 42.5789 7.47871 23.1881 42.5789 -12.5213
403 1 23.632 2.2416 -3.81846 23.632 2.2416 16.1815
404 2 25.8233 1.57568 -2.92357 25.8233 1.57568 17.0764
405 2 24.7493 2.7768 -5.98323 24.7493 2.7768 14.0168
406 1 27.17 41.946 8.39627 27.17 41.946 -11.6037
407 2 30.9455 41.0653 9.85615 30.9455 41.0653 -10.1439
408 2 29.236 43.094 7.55166 29.236 43.094 -12.4483
409 1 30.178 40.907 7.62388 30.178 40.907 -12.3761
410 2 33.7884 39.8207 9.16719 33.7884 39.8207 -10.8328
411 2 32.237 41.8564 6.63869 32.237 41.8564 -13.3613
412 1 33.036 42.2998 9.00021 33.036 42.2998 -10.9998
413 2 35.2068 41.7739 -9.6017 35.2068 41.7739 -9.6017
414 2 34.9726 42.9175 7.36697 34.9726 42.9175 -12.633
415 1 35.9729 40.7656 8.17547 35.9729 40.7656 -11.8245
416 2 38.0238 40.0057 9.63886 38.0238 40.0057 -10.3611
417 2 37.9762 41.4823 6.77786 37.9762 41.4823 -13.2221
418 1 39.0613 42.1639 8.93521 39.0613 42.1639 -11.0648
419 2 40.8896 40.9642 -9.6335 40.8896 40.9642 -9.6335
420 2 41.1256 42.5666 7.57507 41.1256 42.5666 -12.4249
421 1 41.816 40.3224 8.18168 41.816 40.3224 -11.8183
422 2 43.9023 39.4172 9.21975 43.9023 39.4172 -10.7803
423 2 43.5344 41.0739 6.37839 43.5344 41.0739 -13.6216
424 1 44.8478 41.5875 8.48358 44.8478 41.5875 -11.5164
425 2 46.6835 40.5397 9.98393 46.6835 40.5397 -10.0161
426 2 46.8325 41.8363 7.01532 46.8325 41.8363 -12.9847
427 1 47.5427 39.5638 7.8512 47.5427 39.5638 -12.1488
428 2 49.3317 38.4347 9.04626 49.3317 38.4347 -10.9537
429 2 52.1171 38.2714 7.98167 52.1171 38.2714 -12.0183
430 1 48.0451 42.4912 9.20908 48.0451 42.4912 -10.7909
431 2 49.8015 41.2031 -9.37602 49.8015 41.2031 -9.37602
432 2 50.2635 42.8616 7.75948 50.2635 42.8616 -12.2405
433 1 51.4322 43.2674 -9.89089 0.021422 43.2674 -9.89089
434 2 2.4129 42.8214 -8.85988 2.4129 42.8214 -8.85988
435 2 1.59508 44.0482 8.18207 1.59508 44.0482 -11.8179
436 1 3.16497 45.0022 -9.93034 3.16497 45.0022 -9.93034
437 2 5.06594 44.0359 -8.47849 5.06594 44.0359 -8.47849
438 2 5.4008 45.5968 8.7435 5.4008 45.5968 -11.2565
439 1 5.99558 43.2219 9.41468 5.99558 43.2219 -10.5853
440 2 7.99521 42.9089 -9.07767 7.99521 42.9089 -9.07767
441 2 9.76454 42.842 8.64492 9.76454 42.842 -11.3551
442 1 9.21344 44.913 -10.0975 9.21344 44.913 -10.0975
443 2 11.2508 44.4355 -8.6135 11.2508 44.4355 -8.6135
444 2 11.1325 45.7688 8.47483 11.1325 45.7688 -11.5252
445 1 12.1684 43.5538 9.17115 12.1684 43.5538 -10.8288
446 2 14.4634 43.0886 -9.84158 14.4634 43.0886 -9.84158
447 2 13.5878 44.4726 7.43641 13.5878 44.4726 -12.5636
448 1 15.1966 45.3421 9.28461 15.1966 45.3421 -10.7154
449 2 16.9344 44.232 -9.01834 16.9344 44.232 -9.01834
450 2 17.5405 46.2961 8.63518 17.5405 46.2961 -11.3648
451 1 18.1517 43.7943 8.91847 18.1517 43.7943 -11.0815
452 2 19.5784 42.5705 -9.41109 19.5784 42.5705 -9.41109
453 2 20.5325 44.3052 8.07684 20.5325 44.3052 -11.9232
454 1 21.2246 44.6349 -9.51559 21.2246 44.6349 -9.51559
455 2 23.383 44.203 -8.06642 23.383 44.203 -8.06642
456 2 23.0785 45.3504 8.94731 23.0785 45.3504 -11.0527
457 1 24.1469 43.3304 9.62637 24.1469 43.3304 -10.3736
458 2 27.7923 42.307 -9.23025 27.7923 42.307 -9.23025
459 2 26.1326 44.2151 8.25591 26.1326 44.2151 -11.7441
460 1 27.0671 44.7457 -9.44848 27.0671 44.7457 -9.44848
461 2 28.9952 44.3924 -7.94378 28.9952 44.3924 -7.94378
462 2 28.8165 45.6107 9.1275 28.8165 45.6107 -10.8725
463 1 29.9962 43.4023 9.84597 29.9962 43.4023 -10.154
464 2 32.1932 43.1656 -8.77616 32.1932 43.1656 -8.77616
465 2 31.7276 44.3187 8.24788 31.7276 44.3187 -11.7521
466 1 32.9858 45.2598 -9.80548 32.9858 45.2598 -9.80548
467 2 34.9732 44.7514 -8.46404 34.9732 44.7514 -8.46404
468 2 34.8723 45.9615 8.49766 34.8723 45.9615 -11.5023
469 1 36.1335 43.8901 9.43147 36.1335 43.8901 -10.5685
470 2 38.1661 43.1849 -8.96805 38.1661 43.1849 -8.96805
471 2 38.2901 44.3644 8.12872 38.2901 44.3644 -11.8713
472 1 39.4381 45.4322 -9.77481 39.4381 45.4322 -9.77481
473 2 41.4033 44.2795 -8.28758 41.4033 44.2795 -8.28758
474 2 41.3636 45.4366 8.58455 41.3636 45.4366 -11.4155
475 1 42.0671 43.0691 9.7328 42.0671 43.0691 -10.2672
476 2 44.1142 41.7974 -9.17821 44.1142 41.7974 -9.17821
477 2 43.9581 44.2844 8.56717 43.9581 44.2844 -11.4328
478 1 41.2513 48.1899 8.95643 41.2513 48.1899 -11.0436
479 2 44.7955 45.5558 -7.70519 44.7955 45.5558 -7.70519
480 2 43.8964 47.3892 9.11223 43.8964 47.3892 -10.8878
481 1 45.395 43.8153 -9.29719 45.395 43.8153 -9.29719
482 2 47.7 43.0765 -8.33695 47.7 43.0765 -8.33695
483 2 46.8008 45.0541 9.05747 46.8008 45.0541 -10.9425
484 1 48.7917 45.2387 -9.26265 48.7917 45.2387 -9.26265
485 2 50.705 44.5132 -7.7747 50.705 44.5132 -7.7747
486 2 50.6542 45.5964 9.10892 50.6542 45.5964 -10.8911
487 1 51.8373 46.5497 -8.88242 0.426487 46.5497 -8.88242
488 2 2.42185 45.6781 -7.48723 2.42185 45.6781 -7.48723
489 2 2.42025 47.2899 9.55681 2.42025 47.2899 -10.4432
490 1 3.60628 47.8442 -8.16895 3.60628 47.8442 -8.16895
491 2 5.49906 47.1995 -6.74096 5.49906 47.1995 -6.74096
492 2 5.50789 48.464 -9.6958 5.50789 48.464 -9.6958
493 1 6.45231 46.1669 -8.9481 6.45231 46.1669 -8.9481
494 2 8.53341 45.4569 -7.76991 8.53341 45.4569 -7.76991
495 2 8.11076 47.1388 9.40341 8.11076 47.1388 -10.5966
496 1 9.38607 47.8758 -8.43064 9.38607 47.8758 -8.43064
497 2 11.3304 47.0923 -7.12221 11.3304 47.0923 -7.12221
498 2 11.1505 48.7078 -9.93507 11.1505 48.7078 -9.93507
499 1 12.2445 46.5757 -9.37625 12.2445 46.5757 -9.37625
500 2 14.2374 45.6455 -8.06485 14.2374 45.6455 -8.06485
501 2 14.1059 47.7176 9.31846 14.1059 47.7176 -10.6815
502 1 15.3219 47.8937 -8.55497 15.3219 47.8937 -8.55497
503 2 17.0269 47.0586 -6.91977 17.0269 47.0586 -6.91977
504 2 17.4537 48.7643 -9.65799 17.4537 48.7643 -9.65799
505 1 18.1787 46.4104 -9.02245 18.1787 46.4104 -9.02245
506 2 20.0094 45.5298 -7.41621 20.0094 45.5298 -7.41621
507 2 20.2959 47.0262 9.72006 20.2959 47.0262 -10.2799
508 1 21.0828 47.7123 -8.00963 21.0828 47.7123 -8.00963
509 2 23.1077 47.0706 -6.66232 23.1077 47.0706 -6.66232
510 2 23.0161 48.4516 -9.59113 23.0161 48.4516 -9.59113
511 1 24.0971 46.3459 -8.95924 24.0971 46.3459 -8.95924
512 2 25.8182 45.5576 -7.44003 25.8182 45.5576 -7.44003
513 2 26.2206 46.9239 9.81215 26.2206 46.9239 -10.1878
514 1 26.8606 47.7193 -7.8377 26.8606 47.7193 -7.8377
515 2 28.9646 47.1383 -6.52456 28.9646 47.1383 -6.52456
516 2 28.5769 48.5907 -9.47925 28.5769 48.5907 -9.47925
517 1 29.7975 46.4809 -8.81027 29.7975 46.4809 -8.81027
518 2 32.0288 45.7751 -7.55966 32.0288 45.7751 -7.55966
519 2 31.6911 47.3405 9.51847 31.6911 47.3405 -10.4815
520 1 32.6821 48.0726 -8.20411 32.6821 48.0726 -8.20411
521 2 34.8123 47.4988 -7.10888 34.8123 47.4988 -7.10888
522 2 34.2592 49.1244 -9.73807 34.2592 49.1244 -9.73807
523 1 35.7706 46.9662 -9.42127 35.7706 46.9662 -9.42127
524 2 37.939 46.6458 -8.01189 37.939 46.6458 -8.01189
525 2 36.6333 48.6806 8.97229 36.6333 48.6806 -11.0277
526 1 38.4494 48.7593 -9.33029 38.4494 48.7593 -9.33029
527 2 40.9847 47.5751 -8.83027 40.9847 47.5751 -8.83027
528 2 38.9754 47.2649 8.47879 38.9754 47.2649 -11.5212
529 1 42.9271 45.8686 -9.39196 42.9271 45.8686 -9.39196
530 2 39.5073 48.9658 -7.17198 39.5073 48.9658 -7.17198
531 2 39.8702 50.3098 9.2119 39.8702 50.3098 -10.7881
532 1 43.5811 48.8433 -8.91819 43.5811 48.8433 -8.91819
533 2 45.1319 48.1847 -7.10585 45.1319 48.1847 -7.10585
534 2 45.5705 49.4792 9.87239 45.5705 49.4792 -10.1276
535 1 46.1936 47.0973 -9.21353 46.1936 47.0973 -9.21353
536 2 47.7203 46.2793 -7.34397 47.7203 46.2793 -7.34397
537 2 48.3671 47.4243 9.54925 48.3671 47.4243 -10.4507
538 1 49.1123 48.183 -8.13897 49.1123 48.183 -8.13897
539 2 50.9991 47.4445 -6.68632 50.9991 47.4445 -6.68632