ITEM: TIMESTEP
308000
ITEM: NUMBER OF ATOMS
810
ITEM: BOX BOUNDS pp pp pp
8.0341777045796159e-01 5.2214187229542503e+01
4.4989551807577688e-02 5.0971225448191291e+01
-1.0000000000000000e+01 1.0000000000000000e+01
ITEM: ATOMS id type x y z xu yu zu
1 1 0.976419 0.346709 -0.260826 0.976419 0.346709 -0.260826
2 2 2.83729 0.265755 1.43083 2.83729 0.265755 1.43083
3 2 2.99704 0.36284 -1.80625 2.99704 0.36284 -1.80625
4 1 3.79297 1.98463 -0.196096 3.79297 1.98463 -0.196096
5 2 5.79053 1.9278 1.44433 5.79053 1.9278 1.44433
6 2 5.69063 1.99648 -1.80821 5.69063 1.99648 -1.80821
7 1 6.73084 0.224752 -0.190826 6.73084 0.224752 -0.190826
8 2 8.63288 0.123396 1.3321 8.63288 0.123396 1.3321
9 2 8.6577 0.456933 -1.85548 8.6577 0.456933 -1.85548
10 1 9.66655 1.91305 -0.0176588 9.66655 1.91305 -0.0176588
11 2 11.5698 1.77941 1.68618 11.5698 1.77941 1.68618
12 2 11.6733 2.01808 -1.60665 11.6733 2.01808 -1.60665
13 1 12.4762 0.122595 -0.0483665 12.4762 0.122595 -0.0483665
14 2 14.4472 0.183939 1.53511 14.4472 0.183939 1.53511
15 2 14.466 0.260066 -1.64342 14.466 0.260066 -1.64342
16 1 15.4029 1.97631 -0.0671878 15.4029 1.97631 -0.0671878
17 2 17.3064 1.77438 1.62918 17.3064 1.77438 1.62918
18 2 17.2547 2.12178 -1.60976 17.2547 2.12178 -1.60976
19 1 18.181 0.138111 -0.151415 18.181 0.138111 -0.151415
20 2 19.985 0.129213 1.59522 19.985 0.129213 1.59522
21 2 20.27 0.212791 -1.6297 20.27 0.212791 -1.6297
22 1 21.0115 1.90976 0.21326 21.0115 1.90976 0.21326
23 2 22.7495 2.17842 1.85096 22.7495 2.17842 1.85096
24 2 23.0195 1.80517 -1.45379 23.0195 1.80517 -1.45379
25 1 23.8423 0.177551 0.358114 23.8423 0.177551 0.358114
26 2 25.613 0.162868 2.00224 25.613 0.162868 2.00224
27 2 25.7073 0.214439 -1.31638 25.7073 0.214439 -1.31638
28 1 26.7223 1.89122 0.293596 26.7223 1.89122 0.293596
29 2 28.544 1.85176 2.03523 28.544 1.85176 2.03523
30 2 28.5673 1.99073 -1.34323 28.5673 1.99073 -1.34323
31 1 29.4805 0.326967 0.302676 29.4805 0.326967 0.302676
32 2 31.4625 0.332186 1.846 31.4625 0.332186 1.846
33 2 31.5037 0.15782 -1.39569 31.5037 0.15782 -1.39569
34 1 32.3827 2.02948 0.164758 32.3827 2.02948 0.164758
35 2 34.2606 1.81499 1.848 34.2606 1.81499 1.848
36 2 34.3466 2.27684 -1.39693 34.3466 2.27684 -1.39693
37 1 35.2024 0.338523 0.0568365 35.2024 0.338523 0.0568365
38 2 37.2152 0.252158 1.60547 37.2152 0.252158 1.60547
39 2 37.0044 0.312434 -1.67021 37.0044 0.312434 -1.67021
40 1 38.1233 1.90119 -0.141754 38.1233 1.90119 -0.141754
41 2 39.8198 1.88002 1.60821 39.8198 1.88002 1.60821
42 2 40.1357 2.0211 -1.6272 40.1357 2.0211 -1.6272
43 1 40.977 0.296859 -0.0821133 40.977 0.296859 -0.0821133
44 2 43.1022 0.249939 1.31787 43.1022 0.249939 1.31787
45 2 42.6113 0.284812 -1.87863 42.6113 0.284812 -1.87863
46 1 43.8886 2.05714 -0.29571 43.8886 2.05714 -0.29571
47 2 45.7661 1.82097 1.26845 45.7661 1.82097 1.26845
48 2 45.7346 2.15384 -1.94685 45.7346 2.15384 -1.94685
49 1 46.7024 0.35328 -0.436038 46.7024 0.35328 -0.436038
50 2 48.4858 0.0960722 1.26322 48.4858 0.0960722 1.26322
51 2 48.6584 0.558434 -1.91893 48.6584 0.558434 -1.91893
52 1 49.492 2.03716 -0.106764 49.492 2.03716 -0.106764
53 2 51.4819 2.0387 1.47584 51.4819 2.0387 1.47584
54 2 51.416 2.12216 -1.88153 51.416 2.12216 -1.88153
55 1 0.993933 3.67205 -0.213868 0.993933 3.67205 -0.213868
56 2 2.83703 3.56259 1.45736 2.83703 3.56259 1.45736
57 2 3.01284 3.76464 -1.73915 3.01284 3.76464 -1.73915
58 1 3.86232 5.33433 -0.00230974 3.86232 5.33433 -0.00230974
59 2 5.74139 5.12111 1.58141 5.74139 5.12111 1.58141
60 2 5.69492 5.43135 -1.64506 5.69492 5.43135 -1.64506
61 1 6.73519 3.6073 -0.16395 6.73519 3.6073 -0.16395
62 2 8.63482 3.65734 1.45815 8.63482 3.65734 1.45815
63 2 8.68969 3.57204 -1.759 8.68969 3.57204 -1.759
64 1 9.55131 5.27618 -0.216501 9.55131 5.27618 -0.216501
65 2 11.3673 5.45954 1.52586 11.3673 5.45954 1.52586
66 2 11.5861 5.26216 -1.7282 11.5861 5.26216 -1.7282
67 1 12.5049 3.6009 0.0587257 12.5049 3.6009 0.0587257
68 2 14.4436 3.62478 1.6465 14.4436 3.62478 1.6465
69 2 14.2898 3.71062 -1.63646 14.2898 3.71062 -1.63646
70 1 15.3439 5.33909 -0.0656391 15.3439 5.33909 -0.0656391
71 2 17.1958 5.56665 1.442 17.1958 5.56665 1.442
72 2 17.2064 5.2324 -1.7284 17.2064 5.2324 -1.7284
73 1 18.2183 3.64121 0.0964244 18.2183 3.64121 0.0964244
74 2 20.1602 3.79403 1.64921 20.1602 3.79403 1.64921
75 2 20.0455 3.38686 -1.60344 20.0455 3.38686 -1.60344
76 1 20.9694 5.33765 -0.105196 20.9694 5.33765 -0.105196
77 2 22.9537 5.38493 1.59366 22.9537 5.38493 1.59366
78 2 22.9763 5.43116 -1.6423 22.9763 5.43116 -1.6423
79 1 23.8511 3.63018 0.00184472 23.8511 3.63018 0.00184472
80 2 25.5899 3.70203 1.78377 25.5899 3.70203 1.78377
81 2 25.9072 3.76055 -1.35156 25.9072 3.76055 -1.35156
82 1 26.7813 5.4555 0.324832 26.7813 5.4555 0.324832
83 2 28.6295 5.39626 2.0484 28.6295 5.39626 2.0484
84 2 28.6545 5.25081 -1.22825 28.6545 5.25081 -1.22825
85 1 29.4981 3.72686 0.561078 29.4981 3.72686 0.561078
86 2 31.6266 3.65979 2.10918 31.6266 3.65979 2.10918
87 2 31.2563 3.81694 -1.26936 31.2563 3.81694 -1.26936
88 1 32.4243 5.40726 0.407975 32.4243 5.40726 0.407975
89 2 34.2777 5.34243 2.06341 34.2777 5.34243 2.06341
90 2 34.2996 5.44384 -1.23923 34.2996 5.44384 -1.23923
91 1 35.2434 3.70299 0.37739 35.2434 3.70299 0.37739
92 2 37.3942 3.4515 1.69944 37.3942 3.4515 1.69944
93 2 37.05 3.73701 -1.46432 37.05 3.73701 -1.46432
94 1 38.1179 5.33081 0.202938 38.1179 5.33081 0.202938
95 2 40.1553 5.4168 1.76535 40.1553 5.4168 1.76535
96 2 39.9336 5.17012 -1.58191 39.9336 5.17012 -1.58191
97 1 40.9563 3.61223 0.15074 40.9563 3.61223 0.15074
98 2 43.0296 3.61907 1.59724 43.0296 3.61907 1.59724
99 2 42.6634 3.88209 -1.6261 42.6634 3.88209 -1.6261
100 1 43.8459 5.48015 0.0222077 43.8459 5.48015 0.0222077
101 2 45.778 5.19953 1.62342 45.778 5.19953 1.62342
102 2 45.7785 5.73376 -1.51862 45.7785 5.73376 -1.51862
103 1 46.6651 3.75651 -0.175423 46.6651 3.75651 -0.175423
104 2 48.4337 3.65147 1.60494 48.4337 3.65147 1.60494
105 2 48.6238 3.75479 -1.67317 48.6238 3.75479 -1.67317
106 1 49.4313 5.43109 0.0716152 49.4313 5.43109 0.0716152
107 2 51.4409 5.17741 1.61121 51.4409 5.17741 1.61121
108 2 51.3433 5.6813 -1.49924 51.3433 5.6813 -1.49924
109 1 0.911395 7.10602 0.293552 0.911395 7.10602 0.293552
110 2 3.01739 6.90383 1.78639 3.01739 6.90383 1.78639
111 2 2.87446 7.10493 -1.43571 2.87446 7.10493 -1.43571
112 1 3.85084 8.86976 0.271708 3.85084 8.86976 0.271708
113 2 5.68167 8.69965 1.77853 5.68167 8.69965 1.77853
114 2 5.57389 8.64536 -1.36915 5.57389 8.64536 -1.36915
115 1 6.69598 7.03244 0.166668 6.69598 7.03244 0.166668
116 2 8.80307 6.86845 1.59328 8.80307 6.86845 1.59328
117 2 8.40748 7.06544 -1.6439 8.40748 7.06544 -1.6439
118 1 9.60521 8.73142 -0.108204 9.60521 8.73142 -0.108204
119 2 11.3658 8.6018 1.49959 11.3658 8.6018 1.49959
120 2 11.522 8.89237 -1.7165 11.522 8.89237 -1.7165
121 1 12.4687 7.05624 -0.208341 12.4687 7.05624 -0.208341
122 2 14.3009 7.30934 1.49656 14.3009 7.30934 1.49656
123 2 14.4112 7.00301 -1.7415 14.4112 7.00301 -1.7415
124 1 15.3119 8.85833 -0.290972 15.3119 8.85833 -0.290972
125 2 17.1778 8.65471 1.36112 17.1778 8.65471 1.36112
126 2 17.3642 8.87256 -1.88763 17.3642 8.87256 -1.88763
127 1 18.1746 7.09145 -0.334549 18.1746 7.09145 -0.334549
128 2 19.9064 6.98218 1.41607 19.9064 6.98218 1.41607
129 2 20.2546 7.0473 -1.75271 20.2546 7.0473 -1.75271
130 1 21.0289 8.72621 -0.0862065 21.0289 8.72621 -0.0862065
131 2 22.9396 8.8343 1.60952 22.9396 8.8343 1.60952
132 2 23.0354 8.69927 -1.60831 23.0354 8.69927 -1.60831
133 1 23.9996 7.16444 0.0343821 23.9996 7.16444 0.0343821
134 2 25.7462 7.15919 1.87055 25.7462 7.15919 1.87055
135 2 26.0147 7.05866 -1.46434 26.0147 7.05866 -1.46434
136 1 26.771 8.82867 0.256502 26.771 8.82867 0.256502
137 2 28.5555 8.7849 1.91009 28.5555 8.7849 1.91009
138 2 28.7362 8.80149 -1.31157 28.7362 8.80149 -1.31157
139 1 29.554 7.07657 0.35269 29.554 7.07657 0.35269
140 2 31.4395 7.0757 2.02831 31.4395 7.0757 2.02831
141 2 31.4613 7.12406 -1.22724 31.4613 7.12406 -1.22724
142 1 32.374 8.80793 0.334114 32.374 8.80793 0.334114
143 2 34.2086 8.71518 2.0043 34.2086 8.71518 2.0043
144 2 34.193 8.74454 -1.27858 34.193 8.74454 -1.27858
145 1 35.1829 7.08117 0.37521 35.1829 7.08117 0.37521
146 2 37.1661 6.92758 1.79789 37.1661 6.92758 1.79789
147 2 36.9581 6.97206 -1.44499 36.9581 6.97206 -1.44499
148 1 37.9104 8.63106 0.184679 37.9104 8.63106 0.184679
149 2 39.962 8.59597 1.74311 39.962 8.59597 1.74311
150 2 39.8686 8.81147 -1.51929 39.8686 8.81147 -1.51929
151 1 40.9158 7.0314 -0.0339284 40.9158 7.0314 -0.0339284
152 2 42.8583 7.03148 1.74278 42.8583 7.03148 1.74278
153 2 42.9614 7.07976 -1.4887 42.9614 7.07976 -1.4887
154 1 43.7819 8.86416 0.138947 43.7819 8.86416 0.138947
155 2 45.6328 8.96507 1.83449 45.6328 8.96507 1.83449
156 2 45.776 8.88528 -1.35572 45.776 8.88528 -1.35572
157 1 46.6331 7.23737 0.308424 46.6331 7.23737 0.308424
158 2 48.7521 7.22924 1.77827 48.7521 7.22924 1.77827
159 2 48.352 7.08665 -1.50407 48.352 7.08665 -1.50407
160 1 49.5375 8.82221 -0.0140422 49.5375 8.82221 -0.0140422
161 2 51.2332 8.80911 1.8216 51.2332 8.80911 1.8216
162 2 51.6059 8.73057 -1.53308 51.6059 8.73057 -1.53308
163 1 0.961608 10.6128 0.220562 0.961608 10.6128 0.220562
164 2 2.89902 10.5814 1.89189 2.89902 10.5814 1.89189
165 2 2.92027 10.4811 -1.38899 2.92027 10.4811 -1.38899
166 1 3.80333 12.1848 0.273937 3.80333 12.1848 0.273937
167 2 5.73382 12.1733 1.82491 5.73382 12.1733 1.82491
168 2 5.71876 12.0992 -1.44927 5.71876 12.0992 -1.44927
169 1 6.65625 10.4316 0.159987 6.65625 10.4316 0.159987
170 2 8.67321 10.2668 1.70668 8.67321 10.2668 1.70668
171 2 8.58611 10.6009 -1.52749 8.58611 10.6009 -1.52749
172 1 9.49024 12.1679 0.285913 9.49024 12.1679 0.285913
173 2 11.4648 12.1936 1.86928 11.4648 12.1936 1.86928
174 2 11.3468 12.1332 -1.4254 11.3468 12.1332 -1.4254
175 1 12.3702 10.5191 0.167791 12.3702 10.5191 0.167791
176 2 14.3732 10.401 1.53771 14.3732 10.401 1.53771
177 2 14.1186 10.5769 -1.69602 14.1186 10.5769 -1.69602
178 1 15.2881 12.1028 -0.108047 15.2881 12.1028 -0.108047
179 2 17.3073 12.0731 1.3543 17.3073 12.0731 1.3543
180 2 17.1793 12.139 -1.81976 17.1793 12.139 -1.81976
181 1 18.2887 10.4762 -0.223437 18.2887 10.4762 -0.223437
182 2 20.0623 10.5339 1.46347 20.0623 10.5339 1.46347
183 2 20.1817 10.3507 -1.84785 20.1817 10.3507 -1.84785
184 1 21.024 12.1555 -0.194663 21.024 12.1555 -0.194663
185 2 22.8693 12.1776 1.5205 22.8693 12.1776 1.5205
186 2 23.0412 12.1468 -1.69139 23.0412 12.1468 -1.69139
187 1 23.8943 10.5659 0.00343457 23.8943 10.5659 0.00343457
188 2 25.722 10.6609 1.73813 25.722 10.6609 1.73813
189 2 25.796 10.3231 -1.55583 25.796 10.3231 -1.55583
190 1 26.7698 12.1855 0.0368308 26.7698 12.1855 0.0368308
191 2 28.4254 12.1521 1.79895 28.4254 12.1521 1.79895
192 2 28.7987 12.1425 -1.41528 28.7987 12.1425 -1.41528
193 1 29.5305 10.4394 0.245342 29.5305 10.4394 0.245342
194 2 31.2793 10.4178 2.05418 31.2793 10.4178 2.05418
195 2 31.582 10.5649 -1.18537 31.582 10.5649 -1.18537
196 1 32.3563 12.2717 0.433902 32.3563 12.2717 0.433902
197 2 34.3444 12.2251 2.0728 34.3444 12.2251 2.0728
198 2 34.3365 12.1628 -1.12214 34.3365 12.1628 -1.12214
199 1 35.1926 10.3954 0.406214 35.1926 10.3954 0.406214
200 2 37.1394 10.2679 1.91812 37.1394 10.2679 1.91812
201 2 37.0376 10.4183 -1.34815 37.0376 10.4183 -1.34815
202 1 38.0468 12.0435 0.392633 38.0468 12.0435 0.392633
203 2 40.1216 12.0515 1.84535 40.1216 12.0515 1.84535
204 2 39.8095 11.9012 -1.39831 39.8095 11.9012 -1.39831
205 1 40.8725 10.3207 0.227026 40.8725 10.3207 0.227026
206 2 42.8881 10.4145 1.81189 42.8881 10.4145 1.81189
207 2 42.8343 10.4014 -1.58447 42.8343 10.4014 -1.58447
208 1 43.7191 12.0992 0.0146019 43.7191 12.0992 0.0146019
209 2 45.7402 12.5316 1.63409 45.7402 12.5316 1.63409
210 2 45.7093 12.0822 -1.61641 45.7093 12.0822 -1.61641
211 1 46.6659 10.5612 0.249427 46.6659 10.5612 0.249427
212 2 48.7025 10.4289 1.79727 48.7025 10.4289 1.79727
213 2 48.5132 10.6076 -1.40197 48.5132 10.6076 -1.40197
214 1 49.55 12.2473 0.123098 49.55 12.2473 0.123098
215 2 51.4299 12.1891 1.84453 51.4299 12.1891 1.84453
216 2 51.4196 12.3391 -1.42738 51.4196 12.3391 -1.42738
217 1 0.888065 13.9328 0.193316 0.888065 13.9328 0.193316
218 2 2.91809 13.8987 1.81219 2.91809 13.8987 1.81219
219 2 2.84316 13.8429 -1.31775 2.84316 13.8429 -1.31775
220 1 3.80992 15.5868 0.103168 3.80992 15.5868 0.103168
221 2 5.61726 15.5814 1.8218 5.61726 15.5814 1.8218
222 2 5.64491 15.4705 -1.45657 5.64491 15.4705 -1.45657
223 1 6.69501 13.8348 0.16512 6.69501 13.8348 0.16512
224 2 8.48974 13.9359 1.83102 8.48974 13.9359 1.83102
225 2 8.55819 13.7355 -1.37719 8.55819 13.7355 -1.37719
226 1 9.51528 15.4476 0.0701156 9.51528 15.4476 0.0701156
227 2 11.3211 15.6395 1.72088 11.3211 15.6395 1.72088
228 2 11.4361 15.4506 -1.53396 11.4361 15.4506 -1.53396
229 1 12.3614 13.8139 0.25668 12.3614 13.8139 0.25668
230 2 14.4339 13.6571 1.63557 14.4339 13.6571 1.63557
231 2 14.1232 13.7695 -1.60044 14.1232 13.7695 -1.60044
232 1 15.2326 15.5073 -0.00445901 15.2326 15.5073 -0.00445901
233 2 17.2234 15.5383 1.56429 17.2234 15.5383 1.56429
234 2 17.0862 15.5495 -1.76629 17.0862 15.5495 -1.76629
235 1 18.1438 13.8557 -0.202808 18.1438 13.8557 -0.202808
236 2 20.0342 13.8752 1.37738 20.0342 13.8752 1.37738
237 2 20.0038 13.6845 -1.84337 20.0038 13.6845 -1.84337
238 1 21.0385 15.5085 -0.247296 21.0385 15.5085 -0.247296
239 2 22.8335 15.4781 1.44516 22.8335 15.4781 1.44516
240 2 23.1462 15.472 -1.84376 23.1462 15.472 -1.84376
241 1 23.8916 13.8326 -0.0539978 23.8916 13.8326 -0.0539978
242 2 25.8028 13.871 1.68575 25.8028 13.871 1.68575
243 2 25.8279 13.756 -1.57087 25.8279 13.756 -1.57087
244 1 26.6971 15.4774 0.0886735 26.6971 15.4774 0.0886735
245 2 28.7269 15.6062 1.77002 28.7269 15.6062 1.77002
246 2 28.6878 15.3656 -1.53351 28.6878 15.3656 -1.53351
247 1 29.6159 13.8248 0.230767 29.6159 13.8248 0.230767
248 2 31.2607 13.8532 2.04574 31.2607 13.8532 2.04574
249 2 31.6254 14.0232 -1.21825 31.6254 14.0232 -1.21825
250 1 32.3717 15.6336 0.567504 32.3717 15.6336 0.567504
251 2 34.3618 15.56 2.12508 34.3618 15.56 2.12508
252 2 34.3254 15.6601 -1.06001 34.3254 15.6601 -1.06001
253 1 35.3281 13.9468 0.471738 35.3281 13.9468 0.471738
254 2 37.3642 13.9243 1.97038 37.3642 13.9243 1.97038
255 2 37.0663 13.7475 -1.2456 37.0663 13.7475 -1.2456
256 1 38.1133 15.5558 0.217839 38.1133 15.5558 0.217839
257 2 40.1245 15.7766 1.65147 40.1245 15.7766 1.65147
258 2 39.95 15.5133 -1.56264 39.95 15.5133 -1.56264
259 1 40.8463 13.7465 0.0878752 40.8463 13.7465 0.0878752
260 2 42.9457 13.9529 1.55924 42.9457 13.9529 1.55924
261 2 42.6657 13.4854 -1.63045 42.6657 13.4854 -1.63045
262 1 43.7102 15.4895 -0.330946 43.7102 15.4895 -0.330946
263 2 45.5777 15.6198 1.3158 45.5777 15.6198 1.3158
264 2 45.6193 15.4897 -1.99532 45.6193 15.4897 -1.99532
265 1 46.6383 13.959 -0.204068 46.6383 13.959 -0.204068
266 2 48.3611 13.9966 1.44691 48.3611 13.9966 1.44691
267 2 48.6785 13.8348 -1.71581 48.6785 13.8348 -1.71581
268 1 49.4711 15.5253 -0.13466 49.4711 15.5253 -0.13466
269 2 51.2262 15.6684 1.66263 51.2262 15.6684 1.66263
270 2 51.4341 15.4763 -1.66033 51.4341 15.4763 -1.66033
271 1 0.952646 17.2443 -0.0271795 0.952646 17.2443 -0.0271795
272 2 2.78803 17.3588 1.68117 2.78803 17.3588 1.68117
273 2 2.95061 17.2079 -1.61081 2.95061 17.2079 -1.61081
274 1 3.67816 18.9923 0.100606 3.67816 18.9923 0.100606
275 2 5.64508 18.9976 1.7765 5.64508 18.9976 1.7765
276 2 5.73587 18.7878 -1.5437 5.73587 18.7878 -1.5437
277 1 6.58114 17.239 0.212615 6.58114 17.239 0.212615
278 2 8.67743 17.2189 1.74713 8.67743 17.2189 1.74713
279 2 8.51061 17.1535 -1.48591 8.51061 17.1535 -1.48591
280 1 9.55676 18.9951 0.0733253 9.55676 18.9951 0.0733253
281 2 11.4902 18.984 1.61851 11.4902 18.984 1.61851
282 2 11.4998 18.8409 -1.59294 11.4998 18.8409 -1.59294
283 1 12.4109 17.2194 0.0291644 12.4109 17.2194 0.0291644
284 2 14.3016 17.2031 1.61506 14.3016 17.2031 1.61506
285 2 14.3283 17.1289 -1.64862 14.3283 17.1289 -1.64862
286 1 15.229 18.8841 -0.0842781 15.229 18.8841 -0.0842781
287 2 17.1836 18.9548 1.5383 17.1836 18.9548 1.5383
288 2 17.0439 18.9167 -1.69896 17.0439 18.9167 -1.69896
289 1 18.1062 17.1556 -0.0812201 18.1062 17.1556 -0.0812201
290 2 20.1618 17.2283 1.435 20.1618 17.2283 1.435
291 2 19.9973 17.3037 -1.67916 19.9973 17.3037 -1.67916
292 1 21.009 18.9211 -0.0854289 21.009 18.9211 -0.0854289
293 2 22.9525 19.0629 1.55162 22.9525 19.0629 1.55162
294 2 22.9818 19.0025 -1.68212 22.9818 19.0025 -1.68212
295 1 23.8289 17.2596 -0.178352 23.8289 17.2596 -0.178352
296 2 25.6615 17.1264 1.64536 25.6615 17.1264 1.64536
297 2 25.9453 17.2884 -1.53516 25.9453 17.2884 -1.53516
298 1 26.7502 18.9418 0.20478 26.7502 18.9418 0.20478
299 2 28.7911 18.8851 1.75883 28.7911 18.8851 1.75883
300 2 28.7517 19.0164 -1.44395 28.7517 19.0164 -1.44395
301 1 29.6019 17.3169 0.00509336 29.6019 17.3169 0.00509336
302 2 31.2054 17.2849 1.93188 31.2054 17.2849 1.93188
303 2 31.761 17.1857 -1.23688 31.761 17.1857 -1.23688
304 1 32.4642 18.9539 0.387865 32.4642 18.9539 0.387865
305 2 34.3532 19.0468 2.06428 34.3532 19.0468 2.06428
306 2 34.382 18.8968 -1.27753 34.382 18.8968 -1.27753
307 1 35.3638 17.3147 0.489506 35.3638 17.3147 0.489506
308 2 37.2393 17.4046 1.97071 37.2393 17.4046 1.97071
309 2 37.1366 17.4126 -1.30032 37.1366 17.4126 -1.30032
310 1 38.2309 18.955 0.328933 38.2309 18.955 0.328933
311 2 40.4114 19.1401 1.50704 40.4114 19.1401 1.50704
312 2 39.8726 18.873 -1.64886 39.8726 18.873 -1.64886
313 1 41.024 17.3098 -0.0933469 41.024 17.3098 -0.0933469
314 2 43.0636 17.2461 1.37495 43.0636 17.2461 1.37495
315 2 42.7098 17.2009 -1.92829 42.7098 17.2009 -1.92829
316 1 43.8318 19.0287 -0.439465 43.8318 19.0287 -0.439465
317 2 45.8282 19.1939 1.14603 45.8282 19.1939 1.14603
318 2 45.6459 18.8458 -2.1219 45.6459 18.8458 -2.1219
319 1 46.5962 17.2417 -0.362662 46.5962 17.2417 -0.362662
320 2 48.5649 17.3551 1.2523 48.5649 17.3551 1.2523
321 2 48.6018 17.0534 -1.9492 48.6018 17.0534 -1.9492
322 1 49.4308 18.835 -0.468205 49.4308 18.835 -0.468205
323 2 51.2955 19.0232 1.28579 51.2955 19.0232 1.28579
324 2 51.4586 18.7183 -1.93765 51.4586 18.7183 -1.93765
325 1 0.973188 20.5011 -0.419137 0.973188 20.5011 -0.419137
326 2 2.59789 20.7702 1.45057 2.59789 20.7702 1.45057
327 2 2.98499 20.4302 -1.77855 2.98499 20.4302 -1.77855
328 1 3.79464 22.2855 -0.111594 3.79464 22.2855 -0.111594
329 2 5.72835 22.3213 1.6119 5.72835 22.3213 1.6119
330 2 5.84588 22.2247 -1.63913 5.84588 22.2247 -1.63913
331 1 6.7219 20.5101 0.0715549 6.7219 20.5101 0.0715549
332 2 8.62618 20.7858 1.6012 8.62618 20.7858 1.6012
333 2 8.5421 20.443 -1.62067 8.5421 20.443 -1.62067
334 1 9.50671 22.2726 -0.203829 9.50671 22.2726 -0.203829
335 2 11.4865 22.5064 1.32508 11.4865 22.5064 1.32508
336 2 11.4391 22.0811 -1.81264 11.4391 22.0811 -1.81264
337 1 12.3943 20.6908 0.067935 12.3943 20.6908 0.067935
338 2 14.334 20.6019 1.62047 14.334 20.6019 1.62047
339 2 14.2599 20.6571 -1.62621 14.2599 20.6571 -1.62621
340 1 15.3316 22.3709 -0.0355701 15.3316 22.3709 -0.0355701
341 2 17.296 22.3444 1.46657 17.296 22.3444 1.46657
342 2 17.0003 22.2076 -1.79008 17.0003 22.2076 -1.79008
343 1 18.1047 20.5378 -0.106371 18.1047 20.5378 -0.106371
344 2 20.0365 20.5534 1.52238 20.0365 20.5534 1.52238
345 2 20.0146 20.5505 -1.75998 20.0146 20.5505 -1.75998
346 1 20.9768 22.2569 -0.0525832 20.9768 22.2569 -0.0525832
347 2 22.9884 22.404 1.52774 22.9884 22.404 1.52774
348 2 22.8745 22.2379 -1.75514 22.8745 22.2379 -1.75514
349 1 23.8532 20.6521 -0.0442488 23.8532 20.6521 -0.0442488
350 2 25.6393 20.7016 1.72454 25.6393 20.7016 1.72454
351 2 25.9631 20.6025 -1.47517 25.9631 20.6025 -1.47517
352 1 26.7689 22.2969 0.103282 26.7689 22.2969 0.103282
353 2 28.692 22.4896 1.74375 28.692 22.4896 1.74375
354 2 28.713 22.1851 -1.48223 28.713 22.1851 -1.48223
355 1 29.6951 20.7366 0.316953 29.6951 20.7366 0.316953
356 2 31.5743 20.6682 2.01017 31.5743 20.6682 2.01017
357 2 31.5432 20.6384 -1.3257 31.5432 20.6384 -1.3257
358 1 32.4377 22.3366 0.241925 32.4377 22.3366 0.241925
359 2 34.3335 22.4776 1.83819 34.3335 22.4776 1.83819
360 2 34.3676 22.2723 -1.3594 34.3676 22.2723 -1.3594
361 1 35.3111 20.6385 0.401851 35.3111 20.6385 0.401851
362 2 37.3714 20.8366 1.77717 37.3714 20.8366 1.77717
363 2 37.1007 20.3776 -1.40222 37.1007 20.3776 -1.40222
364 1 38.136 22.3427 -0.154016 38.136 22.3427 -0.154016
365 2 40.0183 22.3898 1.39747 40.0183 22.3898 1.39747
366 2 39.9523 22.366 -1.8692 39.9523 22.366 -1.8692
367 1 41.0251 20.7006 -0.25678 41.0251 20.7006 -0.25678
368 2 43.131 20.9341 1.15367 43.131 20.9341 1.15367
369 2 42.8199 20.6317 -2.0503 42.8199 20.6317 -2.0503
370 1 43.845 22.4692 -0.663378 43.845 22.4692 -0.663378
371 2 45.8008 22.4267 0.915776 45.8008 22.4267 0.915776
372 2 45.693 22.3516 -2.31625 45.693 22.3516 -2.31625
373 1 46.6193 20.6725 -0.699795 46.6193 20.6725 -0.699795
374 2 48.3119 20.5884 1.13611 48.3119 20.5884 1.13611
375 2 48.6905 20.666 -1.98849 48.6905 20.666 -1.98849
376 1 49.4291 22.2863 -0.25421 49.4291 22.2863 -0.25421
377 2 51.3678 22.2438 1.36235 51.3678 22.2438 1.36235
378 2 51.3358 22.2707 -1.93276 51.3358 22.2707 -1.93276
379 1 0.916968 23.9465 -0.23776 0.916968 23.9465 -0.23776
380 2 2.82416 24.1011 1.43631 2.82416 24.1011 1.43631
381 2 2.87497 23.944 -1.83804 2.87497 23.944 -1.83804
382 1 3.86129 25.6388 -0.206353 3.86129 25.6388 -0.206353
383 2 5.66655 25.7762 1.50637 5.66655 25.7762 1.50637
384 2 5.82031 25.407 -1.70797 5.82031 25.407 -1.70797
385 1 6.71489 23.8833 0.0248276 6.71489 23.8833 0.0248276
386 2 8.71744 23.9854 1.37928 8.71744 23.9854 1.37928
387 2 8.49787 23.859 -1.74046 8.49787 23.859 -1.74046
388 1 9.46641 25.7161 -0.334175 9.46641 25.7161 -0.334175
389 2 11.3898 25.6185 1.2451 11.3898 25.6185 1.2451
390 2 11.3839 25.8742 -1.98898 11.3839 25.8742 -1.98898
391 1 12.3508 24.0284 -0.438408 12.3508 24.0284 -0.438408
392 2 14.2298 24.1485 1.25516 14.2298 24.1485 1.25516
393 2 14.4193 23.8611 -1.89992 14.4193 23.8611 -1.89992
394 1 15.2616 25.7521 -0.463363 15.2616 25.7521 -0.463363
395 2 17.1893 25.775 1.25052 17.1893 25.775 1.25052
396 2 17.1897 25.5647 -1.99675 17.1897 25.5647 -1.99675
397 1 18.1145 23.977 -0.269815 18.1145 23.977 -0.269815
398 2 19.9903 24.1188 1.42456 19.9903 24.1188 1.42456
399 2 20.1287 23.8818 -1.74062 20.1287 23.8818 -1.74062
400 1 21.0048 25.7006 -0.267884 21.0048 25.7006 -0.267884
401 2 22.8549 25.7735 1.42984 22.8549 25.7735 1.42984
402 2 22.9012 25.5746 -1.79679 22.9012 25.5746 -1.79679
403 1 23.9498 24.0407 -0.162634 23.9498 24.0407 -0.162634
404 2 25.835 24.2531 1.47112 25.835 24.2531 1.47112
405 2 25.8183 23.7727 -1.71468 25.8183 23.7727 -1.71468
406 1 26.8392 25.6874 -0.309218 26.8392 25.6874 -0.309218
407 2 28.5764 25.85 1.57089 28.5764 25.85 1.57089
408 2 28.8242 25.5306 -1.80893 28.8242 25.5306 -1.80893
409 1 29.6873 24.0339 0.0522107 29.6873 24.0339 0.0522107
410 2 31.466 24.098 1.82129 31.466 24.098 1.82129
411 2 31.5536 24.0086 -1.53588 31.5536 24.0086 -1.53588
412 1 32.415 25.7621 0.0632275 32.415 25.7621 0.0632275
413 2 34.341 25.8155 1.63388 34.341 25.8155 1.63388
414 2 34.2839 25.6103 -1.59546 34.2839 25.6103 -1.59546
415 1 35.2996 24.0285 0.122662 35.2996 24.0285 0.122662
416 2 37.3789 24.0441 1.56133 37.3789 24.0441 1.56133
417 2 36.9474 24.1478 -1.66602 36.9474 24.1478 -1.66602
418 1 38.0218 25.6664 -0.22234 38.0218 25.6664 -0.22234
419 2 39.9748 25.9289 1.3769 39.9748 25.9289 1.3769
420 2 39.8747 25.7687 -1.98167 39.8747 25.7687 -1.98167
421 1 40.8909 24.1609 -0.33194 40.8909 24.1609 -0.33194
422 2 42.9868 24.0136 0.990249 42.9868 24.0136 0.990249
423 2 42.7534 24.0451 -2.17424 42.7534 24.0451 -2.17424
424 1 43.7369 25.7367 -0.642167 43.7369 25.7367 -0.642167
425 2 45.7235 25.5702 0.847039 45.7235 25.5702 0.847039
426 2 45.6971 25.7593 -2.39064 45.6971 25.7593 -2.39064
427 1 46.6758 24.0254 -0.788659 46.6758 24.0254 -0.788659
428 2 48.4099 24.0628 1.05391 48.4099 24.0628 1.05391
429 2 48.8553 23.9261 -2.09533 48.8553 23.9261 -2.09533
430 1 49.5271 25.65 -0.481965 49.5271 25.65 -0.481965
431 2 51.3879 25.8152 1.18366 51.3879 25.8152 1.18366
432 2 51.4112 25.5395 -2.11635 51.4112 25.5395 -2.11635
433 1 0.960473 27.2916 -0.583445 0.960473 27.2916 -0.583445
434 2 2.75913 27.3287 1.28827 2.75913 27.3287 1.28827
435 2 3.07607 27.3881 -1.89421 3.07607 27.3881 -1.89421
436 1 3.83377 29.025 -0.25132 3.83377 29.025 -0.25132
437 2 5.78565 29.1556 1.2701 5.78565 29.1556 1.2701
438 2 5.60716 28.8582 -1.97084 5.60716 28.8582 -1.97084
439 1 6.66469 27.2786 -0.198287 6.66469 27.2786 -0.198287
440 2 8.55739 27.422 1.40757 8.55739 27.422 1.40757
441 2 8.4304 27.3577 -1.91721 8.4304 27.3577 -1.91721
442 1 9.4685 29.1849 -0.251968 9.4685 29.1849 -0.251968
443 2 11.4372 29.1791 1.35052 11.4372 29.1791 1.35052
444 2 11.4693 29.2147 -1.83158 11.4693 29.2147 -1.83158
445 1 12.2811 27.4567 -0.303912 12.2811 27.4567 -0.303912
446 2 14.3841 27.4771 1.20407 14.3841 27.4771 1.20407
447 2 14.0734 27.4519 -2.06121 14.0734 27.4519 -2.06121
448 1 15.2785 29.1658 -0.564 15.2785 29.1658 -0.564
449 2 17.0805 29.0896 1.07161 17.0805 29.0896 1.07161
450 2 17.1806 29.0985 -2.14832 17.1806 29.0985 -2.14832
451 1 18.1239 27.4347 -0.493466 18.1239 27.4347 -0.493466
452 2 19.9713 27.6562 1.22063 19.9713 27.6562 1.22063
453 2 20.1561 27.3356 -2.05113 20.1561 27.3356 -2.05113
454 1 20.9983 29.0874 -0.537471 20.9983 29.0874 -0.537471
455 2 22.8646 29.2762 1.20839 22.8646 29.2762 1.20839
456 2 23.0091 28.9747 -2.05902 23.0091 28.9747 -2.05902
457 1 23.7954 27.3295 -0.240871 23.7954 27.3295 -0.240871
458 2 25.8309 27.4621 1.26748 25.8309 27.4621 1.26748
459 2 25.7884 27.3407 -1.93237 25.7884 27.3407 -1.93237
460 1 26.7096 29.0785 -0.412415 26.7096 29.0785 -0.412415
461 2 28.569 29.4009 1.17914 28.569 29.4009 1.17914
462 2 28.8415 29.0871 -1.98688 28.8415 29.0871 -1.98688
463 1 29.579 27.4865 -0.175015 29.579 27.4865 -0.175015
464 2 31.4171 27.6537 1.56325 31.4171 27.6537 1.56325
465 2 31.5806 27.273 -1.72969 31.5806 27.273 -1.72969
466 1 32.405 29.186 -0.165983 32.405 29.186 -0.165983
467 2 34.3447 29.2331 1.42326 34.3447 29.2331 1.42326
468 2 34.3243 29.1703 -1.84224 34.3243 29.1703 -1.84224
469 1 35.2196 27.4781 -0.136192 35.2196 27.4781 -0.136192
470 2 36.9739 27.2015 1.57595 36.9739 27.2015 1.57595
471 2 37.196 27.5813 -1.69687 37.196 27.5813 -1.69687
472 1 38.052 29.0972 0.168184 38.052 29.0972 0.168184
473 2 40.2812 29.1767 1.46021 40.2812 29.1767 1.46021
474 2 39.7271 29.1371 -1.68831 39.7271 29.1371 -1.68831
475 1 40.8413 27.4278 -0.318705 40.8413 27.4278 -0.318705
476 2 42.8648 27.3138 1.19325 42.8648 27.3138 1.19325
477 2 42.7 27.4536 -2.03869 42.7 27.4536 -2.03869
478 1 43.8091 29.0921 -0.351358 43.8091 29.0921 -0.351358
479 2 45.9558 29.2088 1.0173 45.9558 29.2088 1.0173
480 2 45.5291 28.9915 -2.21276 45.5291 28.9915 -2.21276
481 1 46.7156 27.4318 -0.579003 46.7156 27.4318 -0.579003
482 2 48.6074 27.4687 1.21157 48.6074 27.4687 1.21157
483 2 48.7109 27.2987 -2.10262 48.7109 27.2987 -2.10262
484 1 49.5731 29.0098 -0.446354 49.5731 29.0098 -0.446354
485 2 51.5235 28.9149 1.1067 51.5235 28.9149 1.1067
486 2 51.4012 29.0658 -2.13235 51.4012 29.0658 -2.13235
487 1 1.01378 30.7859 -0.494396 1.01378 30.7859 -0.494396
488 2 3.03225 30.8505 1.14653 3.03225 30.8505 1.14653
489 2 2.9057 30.6642 -2.10198 2.9057 30.6642 -2.10198
490 1 3.91479 32.4513 -0.570071 3.91479 32.4513 -0.570071
491 2 5.74731 32.5948 1.03695 5.74731 32.5948 1.03695
492 2 5.70328 32.4812 -2.21641 5.70328 32.4812 -2.21641
493 1 6.64606 30.7749 -0.587022 6.64606 30.7749 -0.587022
494 2 8.4025 30.9765 1.23173 8.4025 30.9765 1.23173
495 2 8.71245 30.6872 -2.0028 8.71245 30.6872 -2.0028
496 1 9.47886 32.5227 -0.385653 9.47886 32.5227 -0.385653
497 2 11.2924 32.6251 1.36659 11.2924 32.6251 1.36659
498 2 11.5472 32.5736 -1.87238 11.5472 32.5736 -1.87238
499 1 12.3966 30.9083 -0.219269 12.3966 30.9083 -0.219269
500 2 14.3984 30.6751 1.30411 14.3984 30.6751 1.30411
501 2 14.2674 31.0487 -1.91947 14.2674 31.0487 -1.91947
502 1 15.3134 32.5453 -0.136584 15.3134 32.5453 -0.136584
503 2 17.463 32.2991 1.24345 17.463 32.2991 1.24345
504 2 17.036 32.7466 -1.92067 17.036 32.7466 -1.92067
505 1 18.1108 30.7998 -0.579608 18.1108 30.7998 -0.579608
506 2 19.9241 30.7043 1.10812 19.9241 30.7043 1.10812
507 2 20.072 30.9467 -2.02316 20.072 30.9467 -2.02316
508 1 20.9169 32.5203 -0.245273 20.9169 32.5203 -0.245273
509 2 22.8574 32.4059 1.28836 22.8574 32.4059 1.28836
510 2 22.9973 32.5718 -1.94389 22.9973 32.5718 -1.94389
511 1 23.8791 30.8256 -0.467739 23.8791 30.8256 -0.467739
512 2 25.6104 30.5875 1.30069 25.6104 30.5875 1.30069
513 2 25.9109 30.934 -1.912 25.9109 30.934 -1.912
514 1 26.7318 32.547 -0.251771 26.7318 32.547 -0.251771
515 2 28.64 32.6334 1.29372 28.64 32.6334 1.29372
516 2 28.6016 32.6248 -1.9328 28.6016 32.6248 -1.9328
517 1 29.5873 30.9236 -0.447602 29.5873 30.9236 -0.447602
518 2 31.3007 30.9509 1.40299 31.3007 30.9509 1.40299
519 2 31.6214 30.9413 -1.8473 31.6214 30.9413 -1.8473
520 1 32.5074 32.5922 -0.176956 32.5074 32.5922 -0.176956
521 2 34.411 32.6836 1.28789 34.411 32.6836 1.28789
522 2 34.2056 32.4365 -1.93848 34.2056 32.4365 -1.93848
523 1 35.2945 30.8707 -0.227858 35.2945 30.8707 -0.227858
524 2 37.1076 31.0426 1.47734 37.1076 31.0426 1.47734
525 2 37.2377 30.5937 -1.77884 37.2377 30.5937 -1.77884
526 1 38.1708 32.562 -0.317782 38.1708 32.562 -0.317782
527 2 40.1637 32.6766 1.18126 40.1637 32.6766 1.18126
528 2 40.0623 32.5148 -2.08539 40.0623 32.5148 -2.08539
529 1 40.9865 30.8306 -0.402117 40.9865 30.8306 -0.402117
530 2 43.0386 30.9135 1.08116 43.0386 30.9135 1.08116
531 2 42.8575 30.4877 -2.1372 42.8575 30.4877 -2.1372
532 1 43.8474 32.498 -0.758357 43.8474 32.498 -0.758357
533 2 45.73 32.4021 0.984748 45.73 32.4021 0.984748
534 2 45.8492 32.5522 -2.3582 45.8492 32.5522 -2.3582
535 1 46.7426 30.7556 -0.780502 46.7426 30.7556 -0.780502
536 2 48.6373 30.8937 0.895837 48.6373 30.8937 0.895837
537 2 48.7085 30.6493 -2.31304 48.7085 30.6493 -2.31304
538 1 49.6348 32.4727 -0.739552 49.6348 32.4727 -0.739552
539 2 51.3611 32.5009 1.05256 51.3611 32.5009 1.05256