ITEM: TIMESTEP
3173000
ITEM: NUMBER OF ATOMS
810
ITEM: BOX BOUNDS pp pp pp
8.0341777045796159e-01 5.2214187229542503e+01
-7.0322158150501712e+00 5.8048430815049038e+01
-1.0000000000000000e+01 1.0000000000000000e+01
ITEM: ATOMS id type x y z xu yu zu
1 1 0.98639 57.4305 0.456083 0.98639 -7.65017 0.456083
2 2 3.0311 56.827 1.88993 3.0311 -8.25369 1.88993
3 2 2.89524 58.0737 -1.18534 2.89524 -7.00698 -1.18534
4 1 3.83616 -6.15165 1.03112 3.83616 -6.15165 1.03112
5 2 5.74107 -6.9052 2.48523 5.74107 -6.9052 2.48523
6 2 5.81407 -5.52398 -0.484556 5.81407 -5.52398 -0.484556
7 1 6.69528 57.3455 0.259779 6.69528 -7.73518 0.259779
8 2 8.58761 56.7117 1.86069 8.58761 -8.36892 1.86069
9 2 8.7019 57.763 -1.16009 8.7019 -7.3176 -1.16009
10 1 9.50858 -6.26172 0.918025 9.50858 -6.26172 0.918025
11 2 11.214 -6.88689 2.54646 11.214 -6.88689 2.54646
12 2 11.5399 -5.83942 -0.429586 11.5399 -5.83942 -0.429586
13 1 12.3964 57.2064 0.555172 12.3964 -7.87429 0.555172
14 2 14.2013 56.658 2.13237 14.2013 -8.42266 2.13237
15 2 14.226 57.6877 -1.02996 14.226 -7.39298 -1.02996
16 1 15.1944 -6.25494 1.09322 15.1944 -6.25494 1.09322
17 2 17.099 58.1934 2.605 17.099 -6.88726 2.605
18 2 17.1698 -5.59027 -0.400484 17.1698 -5.59027 -0.400484
19 1 18.1286 57.2816 0.428357 18.1286 -7.79909 0.428357
20 2 20.0957 56.803 1.82339 20.0957 -8.2776 1.82339
21 2 19.9158 57.7291 -1.22722 19.9158 -7.35158 -1.22722
22 1 20.9917 -6.31391 0.745136 20.9917 -6.31391 0.745136
23 2 22.9234 -6.74188 2.1471 22.9234 -6.74188 2.1471
24 2 22.8167 -5.5055 -0.808593 22.8167 -5.5055 -0.808593
25 1 23.8062 57.452 -0.00982883 23.8062 -7.62864 -0.00982883
26 2 25.5167 56.8371 1.62035 25.5167 -8.24354 1.62035
27 2 25.9751 57.9568 -1.33511 25.9751 -7.12382 -1.33511
28 1 26.6189 -6.11277 0.819935 26.6189 -6.11277 0.819935
29 2 28.5512 -6.82745 2.29153 28.5512 -6.82745 2.29153
30 2 28.4616 -5.41581 -0.625112 28.4616 -5.41581 -0.625112
31 1 29.5086 57.4019 0.17745 29.5086 -7.67877 0.17745
32 2 31.4731 56.7342 1.54401 31.4731 -8.34648 1.54401
33 2 31.3153 -6.89177 -1.30077 31.3153 -6.89177 -1.30077
34 1 32.3709 -6.10347 0.773969 32.3709 -6.10347 0.773969
35 2 34.347 -6.75359 2.20638 34.347 -6.75359 2.20638
36 2 34.101 -5.3179 -0.727619 34.101 -5.3179 -0.727619
37 1 35.227 57.5574 -0.0299531 35.227 -7.52327 -0.0299531
38 2 37.2137 56.9718 1.22972 37.2137 -8.10887 1.22972
39 2 36.9949 -6.74448 -1.70724 36.9949 -6.74448 -1.70724
40 1 38.0413 -5.90632 0.355177 38.0413 -5.90632 0.355177
41 2 40.1953 -6.68176 1.6178 40.1953 -6.68176 1.6178
42 2 39.8271 -5.05821 -1.10429 39.8271 -5.05821 -1.10429
43 1 40.9307 57.8717 -0.734916 40.9307 -7.20894 -0.734916
44 2 42.9143 57.2093 0.849123 42.9143 -7.87139 0.849123
45 2 42.9342 -6.63506 -2.14953 42.9342 -6.63506 -2.14953
46 1 43.8782 -5.69204 0.0729862 43.8782 -5.69204 0.0729862
47 2 45.497 -6.59959 1.7662 45.497 -6.59959 1.7662
48 2 46.0138 -4.96905 -1.07586 46.0138 -4.96905 -1.07586
49 1 46.6401 57.7206 -0.278893 46.6401 -7.36005 -0.278893
50 2 48.3065 56.8139 1.52027 48.3065 -8.26678 1.52027
51 2 48.8706 -6.71459 -1.4004 48.8706 -6.71459 -1.4004
52 1 49.5027 -6.11753 0.933834 49.5027 -6.11753 0.933834
53 2 51.2587 -6.87066 2.51981 51.2587 -6.87066 2.51981
54 2 51.533 -5.50861 -0.522972 51.533 -5.50861 -0.522972
55 1 0.899525 -4.70163 1.71745 0.899525 -4.70163 1.71745
56 2 2.99792 -5.23979 3.15726 2.99792 -5.23979 3.15726
57 2 2.79856 -4.08561 0.152558 2.79856 -4.08561 0.152558
58 1 3.90089 -3.06432 2.13086 3.90089 -3.06432 2.13086
59 2 5.6645 -3.82665 3.77377 5.6645 -3.82665 3.77377
60 2 5.94137 -2.45059 0.822491 5.94137 -2.45059 0.822491
61 1 6.65859 -4.71339 1.66036 6.65859 -4.71339 1.66036
62 2 8.56138 -5.42025 3.04808 8.56138 -5.42025 3.04808
63 2 8.58172 -4.04268 0.183313 8.58172 -4.04268 0.183313
64 1 9.54344 -3.19119 2.27919 9.54344 -3.19119 2.27919
65 2 11.47 -3.78944 3.8257 11.47 -3.78944 3.8257
66 2 11.3526 -2.70316 0.757902 11.3526 -2.70316 0.757902
67 1 12.4149 -4.81017 1.66525 12.4149 -4.81017 1.66525
68 2 14.2468 -5.28842 3.17831 14.2468 -5.28842 3.17831
69 2 14.2798 -4.18854 0.110052 14.2798 -4.18854 0.110052
70 1 15.2707 -3.22221 2.25457 15.2707 -3.22221 2.25457
71 2 17.1758 -3.69977 3.84726 17.1758 -3.69977 3.84726
72 2 17.1725 -2.52426 0.845021 17.1725 -2.52426 0.845021
73 1 18.1084 -4.74264 1.75454 18.1084 -4.74264 1.75454
74 2 20.1176 -5.56841 3.00837 20.1176 -5.56841 3.00837
75 2 19.8755 -4.11727 0.110143 19.8755 -4.11727 0.110143
76 1 20.9846 -3.36979 2.27962 20.9846 -3.36979 2.27962
77 2 22.9682 -3.9568 3.55441 22.9682 -3.9568 3.55441
78 2 22.5837 -2.65219 0.570953 22.5837 -2.65219 0.570953
79 1 23.8237 -4.5405 1.36629 23.8237 -4.5405 1.36629
80 2 25.7162 -5.06308 3.01307 25.7162 -5.06308 3.01307
81 2 25.8042 -4.00187 -0.0474114 25.8042 -4.00187 -0.0474114
82 1 26.6954 -3.04972 1.99776 26.6954 -3.04972 1.99776
83 2 28.5067 -3.64526 3.57454 28.5067 -3.64526 3.57454
84 2 28.6448 -2.46534 0.525466 28.6448 -2.46534 0.525466
85 1 29.4467 -4.59616 1.51344 29.4467 -4.59616 1.51344
86 2 31.5098 -5.3552 2.96367 31.5098 -5.3552 2.96367
87 2 31.4573 -3.91411 0.0201569 31.4573 -3.91411 0.0201569
88 1 32.4219 -3.08609 2.19956 32.4219 -3.08609 2.19956
89 2 34.2862 -3.74523 3.6853 34.2862 -3.74523 3.6853
90 2 34.2746 -2.26947 0.700873 34.2746 -2.26947 0.700873
91 1 35.2457 -4.47364 1.42937 35.2457 -4.47364 1.42937
92 2 37.3019 -5.18238 2.77394 37.3019 -5.18238 2.77394
93 2 37.0387 -3.64891 -0.217058 37.0387 -3.64891 -0.217058
94 1 38.1396 -2.96424 1.93392 38.1396 -2.96424 1.93392
95 2 39.9862 -3.88796 3.33613 39.9862 -3.88796 3.33613
96 2 39.9541 -2.24785 0.477133 39.9541 -2.24785 0.477133
97 1 40.8831 -4.45576 1.12179 40.8831 -4.45576 1.12179
98 2 42.9468 -5.04698 2.39765 42.9468 -5.04698 2.39765
99 2 42.6515 -3.54993 -0.4565 42.6515 -3.54993 -0.4565
100 1 43.8122 -2.86233 1.68876 43.8122 -2.86233 1.68876
101 2 45.6259 -3.55686 3.33014 45.6259 -3.55686 3.33014
102 2 45.8804 -2.28173 0.399708 45.8804 -2.28173 0.399708
103 1 46.7178 -4.42687 1.31658 46.7178 -4.42687 1.31658
104 2 48.3971 -5.042 3.02993 48.3971 -5.042 3.02993
105 2 48.7404 -3.96758 -0.0740698 48.7404 -3.96758 -0.0740698
106 1 49.5159 -2.98468 2.10601 49.5159 -2.98468 2.10601
107 2 51.347 -3.64492 3.76935 51.347 -3.64492 3.76935
108 2 51.6522 -2.55691 0.647567 51.6522 -2.55691 0.647567
109 1 1.01707 -1.52541 2.76643 1.01707 -1.52541 2.76643
110 2 2.8947 -2.32608 4.20727 2.8947 -2.32608 4.20727
111 2 2.94998 -0.818183 1.34862 2.94998 -0.818183 1.34862
112 1 3.81777 -0.0855292 3.42715 3.81777 -0.0855292 3.42715
113 2 5.59155 -0.796904 5.02223 5.59155 -0.796904 5.02223
114 2 5.86313 0.601532 2.18078 5.86313 0.601532 2.18078
115 1 6.66539 -1.64378 3.02184 6.66539 -1.64378 3.02184
116 2 8.41587 -2.51956 4.49187 8.41587 -2.51956 4.49187
117 2 8.65453 -0.991514 1.64732 8.65453 -0.991514 1.64732
118 1 9.49719 -0.312935 3.87966 9.49719 -0.312935 3.87966
119 2 11.5175 -0.897933 5.1745 11.5175 -0.897933 5.1745
120 2 11.2603 0.55227 2.28577 11.2603 0.55227 2.28577
121 1 12.3347 -1.66032 2.83083 12.3347 -1.66032 2.83083
122 2 14.3852 -2.18821 4.3439 14.3852 -2.18821 4.3439
123 2 14.371 -1.081 1.2603 14.371 -1.081 1.2603
124 1 15.2079 -0.0792807 3.31951 15.2079 -0.0792807 3.31951
125 2 17.1213 -0.481361 4.92353 17.1213 -0.481361 4.92353
126 2 17.1206 0.441835 1.86748 17.1206 0.441835 1.86748
127 1 18.1225 -1.62707 2.8964 18.1225 -1.62707 2.8964
128 2 19.995 -2.26285 4.40443 19.995 -2.26285 4.40443
129 2 19.9998 -1.23665 1.34707 19.9998 -1.23665 1.34707
130 1 20.9272 -0.209756 3.39839 20.9272 -0.209756 3.39839
131 2 22.8338 -0.710906 4.77996 22.8338 -0.710906 4.77996
132 2 22.6638 0.351821 1.71767 22.6638 0.351821 1.71767
133 1 23.7573 -1.65481 2.64283 23.7573 -1.65481 2.64283
134 2 25.7294 -2.18193 4.17587 25.7294 -2.18193 4.17587
135 2 25.6353 -1.03811 1.06772 25.6353 -1.03811 1.06772
136 1 26.6164 -0.0173425 3.24751 26.6164 -0.0173425 3.24751
137 2 28.4486 -0.765489 4.85914 28.4486 -0.765489 4.85914
138 2 28.7047 0.689209 1.94744 28.7047 0.689209 1.94744
139 1 29.609 -1.55322 2.67202 29.609 -1.55322 2.67202
140 2 31.3138 -2.28472 4.23092 31.3138 -2.28472 4.23092
141 2 31.6269 -0.834739 1.35272 31.6269 -0.834739 1.35272
142 1 32.4432 -0.194294 3.65914 32.4432 -0.194294 3.65914
143 2 34.346 -0.97231 5.16315 34.346 -0.97231 5.16315
144 2 34.3359 0.647312 2.25575 34.3359 0.647312 2.25575
145 1 35.257 -1.57725 2.91507 35.257 -1.57725 2.91507
146 2 37.2264 -2.45169 4.22485 37.2264 -2.45169 4.22485
147 2 37.0845 -0.748667 1.41749 37.0845 -0.748667 1.41749
148 1 38.0892 -0.180848 3.69582 38.0892 -0.180848 3.69582
149 2 39.9853 -1.0486 5.07664 39.9853 -1.0486 5.07664
150 2 39.854 0.759346 2.25825 39.854 0.759346 2.25825
151 1 40.8675 -1.59156 2.79409 40.8675 -1.59156 2.79409
152 2 42.868 -2.31571 4.07778 42.868 -2.31571 4.07778
153 2 42.567 -0.645016 1.23537 42.567 -0.645016 1.23537
154 1 43.7168 -0.0374535 3.44568 43.7168 -0.0374535 3.44568
155 2 45.5552 -0.850825 4.94173 45.5552 -0.850825 4.94173
156 2 45.7354 0.761591 2.07104 45.7354 0.761591 2.07104
157 1 46.6635 -1.4137 2.66688 46.6635 -1.4137 2.66688
158 2 48.5924 -2.23218 4.2008 48.5924 -2.23218 4.2008
159 2 48.6096 -0.673809 1.30898 48.6096 -0.673809 1.30898
160 1 49.5028 0.0198921 3.46762 49.5028 0.0198921 3.46762
161 2 51.3919 -0.608166 4.92016 51.3919 -0.608166 4.92016
162 2 51.293 0.620039 1.93769 51.293 0.620039 1.93769
163 1 0.881263 1.53701 4.08488 0.881263 1.53701 4.08488
164 2 2.78966 0.593981 5.63031 2.78966 0.593981 5.63031
165 2 2.95302 2.16681 2.82258 2.95302 2.16681 2.82258
166 1 3.78686 2.78312 5.06411 3.78686 2.78312 5.06411
167 2 5.52491 2.10534 6.67204 5.52491 2.10534 6.67204
168 2 5.69212 3.41527 3.63061 5.69212 3.41527 3.63061
169 1 6.61938 1.37874 4.4637 6.61938 1.37874 4.4637
170 2 8.41784 0.649145 5.98304 8.41784 0.649145 5.98304
171 2 8.55488 1.93134 2.97793 8.55488 1.93134 2.97793
172 1 9.46827 2.7439 5.07542 9.46827 2.7439 5.07542
173 2 11.5146 2.2628 6.48737 11.5146 2.2628 6.48737
174 2 11.2948 3.40208 3.57185 11.2948 3.40208 3.57185
175 1 12.3635 1.35604 4.33223 12.3635 1.35604 4.33223
176 2 14.4366 0.737533 5.61514 14.4366 0.737533 5.61514
177 2 14.0682 1.94805 2.46921 14.0682 1.94805 2.46921
178 1 15.175 2.96105 4.5206 15.175 2.96105 4.5206
179 2 17.0502 2.26492 6.0347 17.0502 2.26492 6.0347
180 2 17.123 3.72886 3.07427 17.123 3.72886 3.07427
181 1 18.0739 1.56596 3.89248 18.0739 1.56596 3.89248
182 2 19.9975 0.993607 5.40012 19.9975 0.993607 5.40012
183 2 20.0758 1.86023 2.31962 20.0758 1.86023 2.31962
184 1 20.9063 3.13853 4.37237 20.9063 3.13853 4.37237
185 2 22.8113 2.39925 6.0006 22.8113 2.39925 6.0006
186 2 22.8563 3.61485 2.80964 22.8563 3.61485 2.80964
187 1 23.6925 1.50271 3.76453 23.6925 1.50271 3.76453
188 2 25.5649 0.739406 5.36657 25.5649 0.739406 5.36657
189 2 25.8561 2.23179 2.44679 25.8561 2.23179 2.44679
190 1 26.5753 2.91154 4.70817 26.5753 2.91154 4.70817
191 2 28.3743 2.17221 6.34078 28.3743 2.17221 6.34078
192 2 28.563 3.54122 3.42723 28.563 3.54122 3.42723
193 1 29.5638 1.35791 4.33773 29.5638 1.35791 4.33773
194 2 31.4067 0.592233 5.82179 31.4067 0.592233 5.82179
195 2 31.5744 1.9953 2.92369 31.5744 1.9953 2.92369
196 1 32.4324 2.76646 5.13637 32.4324 2.76646 5.13637
197 2 34.1497 1.88742 6.6847 34.1497 1.88742 6.6847
198 2 34.3217 3.58054 3.77165 34.3217 3.58054 3.77165
199 1 35.2304 1.25822 4.4338 35.2304 1.25822 4.4338
200 2 37.14 0.573033 5.88513 37.14 0.573033 5.88513
201 2 37.1293 2.00661 2.97112 37.1293 2.00661 2.97112
202 1 38.0696 2.84769 5.18472 38.0696 2.84769 5.18472
203 2 39.8624 2.0927 6.70853 39.8624 2.0927 6.70853
204 2 40.1518 3.66094 3.86364 40.1518 3.66094 3.86364
205 1 40.9031 1.25277 4.55681 40.9031 1.25277 4.55681
206 2 42.9086 0.472081 5.73751 42.9086 0.472081 5.73751
207 2 42.6825 2.19775 3.14376 42.6825 2.19775 3.14376
208 1 43.7611 2.75096 5.30962 43.7611 2.75096 5.30962
209 2 45.8134 2.00879 6.66659 45.8134 2.00879 6.66659
210 2 45.5955 3.52499 3.69209 45.5955 3.52499 3.69209
211 1 46.6254 1.39724 4.37272 46.6254 1.39724 4.37272
212 2 48.6012 0.810694 5.76794 48.6012 0.810694 5.76794
213 2 48.5146 2.21461 2.79308 48.5146 2.21461 2.79308
214 1 49.4955 2.99839 4.88627 49.4955 2.99839 4.88627
215 2 51.5016 2.22666 6.27385 51.5016 2.22666 6.27385
216 2 51.441 3.76555 3.34015 51.441 3.76555 3.34015
217 1 1.01468 4.295 5.61983 1.01468 4.295 5.61983
218 2 2.7711 3.54823 7.20277 2.7711 3.54823 7.20277
219 2 3.04675 5.06741 4.36629 3.04675 5.06741 4.36629
220 1 3.77119 5.75472 6.69605 3.77119 5.75472 6.69605
221 2 5.63966 4.88885 8.08366 5.63966 4.88885 8.08366
222 2 5.72999 6.49865 5.30124 5.72999 6.49865 5.30124
223 1 6.55225 4.27734 5.81874 6.55225 4.27734 5.81874
224 2 8.40635 3.60142 7.21589 8.40635 3.60142 7.21589
225 2 8.50847 4.85268 4.35929 8.50847 4.85268 4.35929
226 1 9.4457 5.66811 6.49661 9.4457 5.66811 6.49661
227 2 11.5043 4.98085 7.85642 11.5043 4.98085 7.85642
228 2 11.3503 6.51101 4.99047 11.3503 6.51101 4.99047
229 1 12.3954 4.29026 5.56999 12.3954 4.29026 5.56999
230 2 14.4054 3.48656 6.84629 14.4054 3.48656 6.84629
231 2 14.0814 5.2617 4.07088 14.0814 5.2617 4.07088
232 1 15.1961 5.79565 6.2291 15.1961 5.79565 6.2291
233 2 17.1094 5.03578 7.55824 17.1094 5.03578 7.55824
234 2 17.1338 6.74681 4.75108 17.1338 6.74681 4.75108
235 1 18.0667 4.43251 5.25039 18.0667 4.43251 5.25039
236 2 19.8884 3.79224 6.68441 19.8884 3.79224 6.68441
237 2 19.9811 5.3546 3.93269 19.9811 5.3546 3.93269
238 1 20.9023 6.05893 5.99706 20.9023 6.05893 5.99706
239 2 22.8891 5.22516 7.28979 22.8891 5.22516 7.28979
240 2 22.7161 6.77796 4.35432 22.7161 6.77796 4.35432
241 1 23.7608 4.57636 5.05478 23.7608 4.57636 5.05478
242 2 25.4351 3.79662 6.79367 25.4351 3.79662 6.79367
243 2 25.8406 5.0171 3.8037 25.8406 5.0171 3.8037
244 1 26.5184 5.9248 6.10221 26.5184 5.9248 6.10221
245 2 28.2626 5.15293 7.68791 28.2626 5.15293 7.68791
246 2 28.5937 6.62523 4.91755 28.5937 6.62523 4.91755
247 1 29.479 4.36554 5.59319 29.479 4.36554 5.59319
248 2 31.2603 3.49076 7.24557 31.2603 3.49076 7.24557
249 2 31.4672 5.02793 4.38783 31.4672 5.02793 4.38783
250 1 32.2867 5.70978 6.62549 32.2867 5.70978 6.62549
251 2 34.0093 4.98463 8.19769 34.0093 4.98463 8.19769
252 2 34.3644 6.35286 5.30544 34.3644 6.35286 5.30544
253 1 35.1569 4.2207 6.0796 35.1569 4.2207 6.0796
254 2 37.1208 3.5387 7.49423 37.1208 3.5387 7.49423
255 2 37.0782 5.0656 4.62082 37.0782 5.0656 4.62082
256 1 38.0069 5.74258 6.81499 38.0069 5.74258 6.81499
257 2 41.6901 6.31935 7.65649 41.6901 6.31935 7.65649
258 2 39.973 6.43989 5.31943 39.973 6.43989 5.31943
259 1 40.9237 4.36509 6.20539 40.9237 4.36509 6.20539
260 2 42.9346 3.53001 7.47927 42.9346 3.53001 7.47927
261 2 42.8659 4.95924 4.48697 42.8659 4.95924 4.48697
262 1 43.9391 5.73312 6.67863 43.9391 5.73312 6.67863
263 2 45.9407 5.19777 8.03251 45.9407 5.19777 8.03251
264 2 45.6746 6.49345 5.10642 45.6746 6.49345 5.10642
265 1 46.7034 4.27537 5.78388 46.7034 4.27537 5.78388
266 2 48.6184 3.57994 7.10277 48.6184 3.57994 7.10277
267 2 48.4752 5.24709 4.26131 48.4752 5.24709 4.26131
268 1 49.5854 5.79232 6.41488 49.5854 5.79232 6.41488
269 2 51.377 5.00528 7.96973 51.377 5.00528 7.96973
270 2 51.4638 6.56948 5.02496 51.4638 6.56948 5.02496
271 1 0.938391 7.21363 7.38229 0.938391 7.21363 7.38229
272 2 2.90329 6.31015 8.87849 2.90329 6.31015 8.87849
273 2 2.99018 7.99385 5.95143 2.99018 7.99385 5.95143
274 1 3.75765 8.55387 8.18916 3.75765 8.55387 8.18916
275 2 5.68542 7.78645 9.78232 5.68542 7.78645 9.78232
276 2 5.76615 9.2836 6.85434 5.76615 9.2836 6.85434
277 1 6.59609 7.04631 7.55275 6.59609 7.04631 7.55275
278 2 8.54273 6.31036 8.79151 8.54273 6.31036 8.79151
279 2 8.24695 7.85346 5.98068 8.24695 7.85346 5.98068
280 1 9.47647 8.57679 8.02639 9.47647 8.57679 8.02639
281 2 11.4932 7.88168 9.39616 11.4932 7.88168 9.39616
282 2 11.3439 9.37851 6.52157 11.3439 9.37851 6.52157
283 1 12.3695 7.15886 7.15157 12.3695 7.15886 7.15157
284 2 14.1141 6.26198 8.52019 14.1141 6.26198 8.52019
285 2 14.2827 8.13975 5.79886 14.2827 8.13975 5.79886
286 1 15.1598 8.55719 8.13277 15.1598 8.55719 8.13277
287 2 17.1857 7.50601 9.45372 17.1857 7.50601 9.45372
288 2 17.0413 9.7283 6.98158 17.0413 9.7283 6.98158
289 1 18.0352 7.3118 7.0904 18.0352 7.3118 7.0904
290 2 20.0894 6.53509 8.28588 20.0894 6.53509 8.28588
291 2 19.7115 8.26081 5.56584 19.7115 8.26081 5.56584
292 1 20.9212 8.90789 7.67712 20.9212 8.90789 7.67712
293 2 23.0436 8.41123 8.89513 23.0436 8.41123 8.89513
294 2 22.4442 9.71609 5.97325 22.4442 9.71609 5.97325
295 1 23.8496 7.5438 6.62552 23.8496 7.5438 6.62552
296 2 25.4326 6.63334 8.23406 25.4326 6.63334 8.23406
297 2 25.842 8.10786 5.32001 25.842 8.10786 5.32001
298 1 26.6244 8.75988 7.68893 26.6244 8.75988 7.68893
299 2 28.4955 8.04966 9.25133 28.4955 8.04966 9.25133
300 2 28.5455 9.31802 6.30241 28.5455 9.31802 6.30241
301 1 29.3887 7.21514 7.1474 29.3887 7.21514 7.1474
302 2 31.3512 6.72358 8.73129 31.3512 6.72358 8.73129
303 2 31.3214 7.78841 5.61025 31.3214 7.78841 5.61025
304 1 32.2649 8.79278 7.72163 32.2649 8.79278 7.72163
305 2 33.8178 8.20798 9.40361 33.8178 8.20798 9.40361
306 2 34.2405 9.12919 6.45659 34.2405 9.12919 6.45659
307 1 35.0728 7.09238 7.56328 35.0728 7.09238 7.56328
308 2 37.2767 7.22752 8.72556 37.2767 7.22752 8.72556
309 2 36.8714 7.80133 6.0658 36.8714 7.80133 6.0658
310 1 38.5857 27.4443 -8.64202 38.5857 27.4443 -8.64202
311 2 39.5902 25.0345 -8.45979 39.5902 25.0345 -8.45979
312 2 40.7031 28.2416 -9.50677 40.7031 28.2416 -9.50677
313 1 41.6822 26.0112 -9.08827 41.6822 26.0112 -9.08827
314 2 41.4729 26.0958 -6.66907 41.4729 26.0958 -6.66907
315 2 43.326 24.4713 -8.05189 43.326 24.4713 -8.05189
316 1 43.9559 26.5081 -6.76626 43.9559 26.5081 -6.76626
317 2 45.8965 26.1828 -5.22808 45.8965 26.1828 -5.22808
318 2 45.8286 26.0818 -8.32999 45.8286 26.0818 -8.32999
319 1 46.5979 7.32689 7.23192 46.5979 7.32689 7.23192
320 2 48.6185 6.51695 8.52008 48.6185 6.51695 8.52008
321 2 48.5179 8.07171 5.82555 48.5179 8.07171 5.82555
322 1 49.4398 8.82214 7.98862 49.4398 8.82214 7.98862
323 2 51.4294 8.26077 9.46001 51.4294 8.26077 9.46001
324 2 51.4115 9.26267 6.45916 51.4115 9.26267 6.45916
325 1 0.918279 10.3838 8.57396 0.918279 10.3838 8.57396
326 2 2.62342 9.51853 -9.83301 2.62342 9.51853 10.167
327 2 2.88859 10.6963 7.16599 2.88859 10.6963 7.16599
328 1 3.70768 11.6372 9.34566 3.70768 11.6372 9.34566
329 2 5.42257 10.8355 -8.92421 5.42257 10.8355 11.0758
330 2 5.90399 12.0926 8.18398 5.90399 12.0926 8.18398
331 1 6.68455 9.9525 9.05445 6.68455 9.9525 9.05445
332 2 8.47851 8.88123 -9.59776 8.47851 8.88123 10.4022
333 2 8.67036 11.0007 7.89762 8.67036 11.0007 7.89762
334 1 9.52547 11.1628 -9.6731 9.52547 11.1628 10.3269
335 2 11.6979 10.2784 -8.82284 11.6979 10.2784 11.1772
336 2 11.3355 12.4056 8.82106 11.3355 12.4056 8.82106
337 1 12.2593 10.0732 8.75106 12.2593 10.0732 8.75106
338 2 14.155 9.19909 -9.70509 14.155 9.19909 10.2949
339 2 14.3307 10.8323 7.36729 14.3307 10.8323 7.36729
340 1 15.0993 11.4606 9.6573 15.0993 11.4606 9.6573
341 2 16.6449 10.5593 -8.62022 16.6449 10.5593 11.3798
342 2 17.187 12.1053 8.60217 17.187 12.1053 8.60217
343 1 18.1258 9.81221 9.3098 18.1258 9.81221 9.3098
344 2 20.3961 8.96514 10.0955 20.3961 8.96514 10.0955
345 2 19.6329 10.9413 7.6797 19.6329 10.9413 7.6797
346 1 20.9434 11.5487 9.73217 20.9434 11.5487 9.73217
347 2 23.3995 11.3323 -9.55226 23.3995 11.3323 10.4477
348 2 22.1303 12.5887 7.8201 22.1303 12.5887 7.8201
349 1 23.8138 10.707 7.89513 23.8138 10.707 7.89513
350 2 25.5832 9.80245 9.63277 25.5832 9.80245 9.63277
351 2 26.0002 10.8659 6.55275 26.0002 10.8659 6.55275
352 1 26.6296 11.9322 8.84134 26.6296 11.9322 8.84134
353 2 28.2341 10.9794 -9.48033 28.2341 10.9794 10.5197
354 2 28.6948 12.4696 7.69683 28.6948 12.4696 7.69683
355 1 29.3886 10.2324 8.42483 29.3886 10.2324 8.42483
356 2 31.4813 10.3554 9.5817 31.4813 10.3554 9.5817
357 2 31.1306 10.7831 6.72932 31.1306 10.7831 6.72932
358 1 33.0761 30.6996 -7.43744 33.0761 30.6996 -7.43744
359 2 36.3517 29.7935 -5.82334 36.3517 29.7935 -5.82334
360 2 35.04 31.3203 -8.6436 35.04 31.3203 -8.6436
361 1 35.7009 29.0889 -8.05586 35.7009 29.0889 -8.05586
362 2 39.1733 27.8189 -6.28661 39.1733 27.8189 -6.28661
363 2 37.857 29.8316 -9.04591 37.857 29.8316 -9.04591
364 1 38.6407 30.3066 -6.71824 38.6407 30.3066 -6.71824
365 2 40.5579 29.7816 -5.06785 40.5579 29.7816 -5.06785
366 2 40.6122 30.7501 -8.27914 40.6122 30.7501 -8.27914
367 1 41.4098 28.5166 -7.17014 41.4098 28.5166 -7.17014
368 2 43.0251 28.2507 -5.29666 43.0251 28.2507 -5.29666
369 2 43.4739 28.0824 -8.62739 43.4739 28.0824 -8.62739
370 1 44.4959 29.7614 -6.71349 44.4959 29.7614 -6.71349
371 2 46.2955 29.1518 -5.04148 46.2955 29.1518 -5.04148
372 2 46.4826 29.8783 -8.23114 46.4826 29.8783 -8.23114
373 1 47.1419 27.7219 -6.89031 47.1419 27.7219 -6.89031
374 2 48.9147 27.7261 -5.20283 48.9147 27.7261 -5.20283
375 2 49.6526 31.1088 -7.96724 49.6526 31.1088 -7.96724
376 1 50.3331 29.0027 -6.88977 50.3331 29.0027 -6.88977
377 2 48.7643 28.1448 -8.72448 48.7643 28.1448 -8.72448
378 2 51.9905 29.5735 -8.67206 51.9905 29.5735 -8.67206
379 1 51.005 32.194 -6.08122 -0.405731 32.194 -6.08122
380 2 1.27759 32.6499 -4.34217 1.27759 32.6499 -4.34217
381 2 1.59721 31.9626 -7.65059 1.59721 31.9626 -7.65059
382 1 3.04147 33.441 -5.87548 3.04147 33.441 -5.87548
383 2 5.07606 33.1288 -4.27097 5.07606 33.1288 -4.27097
384 2 3.54551 30.9699 -5.72093 3.54551 30.9699 -5.72093
385 1 6.55048 12.9723 -9.57487 6.55048 12.9723 10.4251
386 2 7.96463 11.9426 -7.77921 7.96463 11.9426 12.2208
387 2 8.89411 13.3678 9.64691 8.89411 13.3678 9.64691
388 1 9.31633 14.0556 -8.00871 9.31633 14.0556 11.9913
389 2 10.5295 12.1566 -7.34555 10.5295 12.1566 12.6545
390 2 11.2977 14.9914 -9.43872 11.2977 14.9914 10.5613
391 1 12.4197 12.7804 -8.94611 12.4197 12.7804 11.0539
392 2 15.149 12.9169 -8.26723 15.149 12.9169 11.7328
393 2 13.8413 13.5911 9.14586 13.8413 13.5911 9.14586
394 1 15.1206 33.2562 -6.65471 15.1206 33.2562 -6.65471
395 2 17.0924 32.9191 -5.07151 17.0924 32.9191 -5.07151
396 2 16.4979 35.044 -7.73649 16.4979 35.044 -7.73649
397 1 17.81 12.8493 -9.07247 17.81 12.8493 10.9275
398 2 19.207 10.8164 -8.57272 19.207 10.8164 11.4273
399 2 19.5245 13.5625 9.15833 19.5245 13.5625 9.15833
400 1 21.1127 33.2568 -5.98935 21.1127 33.2568 -5.98935
401 2 22.3868 33.9974 -4.15202 22.3868 33.9974 -4.15202
402 2 23.2359 33.4498 -7.34067 23.2359 33.4498 -7.34067
403 1 23.5676 13.504 9.62192 23.5676 13.504 9.62192
404 2 26.1301 13.5671 -9.48795 26.1301 13.5671 10.512
405 2 24.8774 13.1247 7.54961 24.8774 13.1247 7.54961
406 1 27.198 33.2861 -6.16097 27.198 33.2861 -6.16097
407 2 31.0603 32.6731 -4.686 31.0603 32.6731 -4.686
408 2 29.1883 34.1209 -7.4217 29.1883 34.1209 -7.4217
409 1 30.2531 31.9212 -6.79954 30.2531 31.9212 -6.79954
410 2 33.8446 31.4664 -5.30703 33.8446 31.4664 -5.30703
411 2 32.1265 32.8161 -8.02663 32.1265 32.8161 -8.02663
412 1 33.0692 33.6927 -5.79878 33.0692 33.6927 -5.79878
413 2 35.2985 33.7209 -4.4727 35.2985 33.7209 -4.4727
414 2 34.8289 34.1135 -7.67488 34.8289 34.1135 -7.67488
415 1 35.8983 32.2178 -6.50603 35.8983 32.2178 -6.50603
416 2 37.7493 31.9146 -4.79112 37.7493 31.9146 -4.79112
417 2 37.8813 32.448 -7.95381 37.8813 32.448 -7.95381
418 1 39.0245 33.6922 -6.18442 39.0245 33.6922 -6.18442
419 2 40.8802 33.0258 -4.42589 40.8802 33.0258 -4.42589
420 2 41.0938 33.6996 -7.54584 41.0938 33.6996 -7.54584
421 1 41.7809 31.6218 -6.25049 41.7809 31.6218 -6.25049
422 2 43.6595 31.0672 -4.59947 43.6595 31.0672 -4.59947
423 2 43.7225 31.8422 -7.90687 43.7225 31.8422 -7.90687
424 1 44.9011 32.947 -5.91968 44.9011 32.947 -5.91968
425 2 46.8996 32.504 -4.40698 46.8996 32.504 -4.40698
426 2 46.8427 33.0786 -7.62224 46.8427 33.0786 -7.62224
427 1 47.6744 30.993 -6.25504 47.6744 30.993 -6.25504
428 2 49.7887 30.3564 -4.80497 49.7887 30.3564 -4.80497
429 2 0.951458 30.0238 -5.91119 52.3622 30.0238 -5.91119
430 1 48.288 34.0208 -5.77487 48.288 34.0208 -5.77487
431 2 49.9377 33.2556 -4.03447 49.9377 33.2556 -4.03447
432 2 50.5256 34.3507 -7.10888 50.5256 34.3507 -7.10888
433 1 51.6462 35.1068 -4.86856 0.23539 35.1068 -4.86856
434 2 2.76647 34.7962 -3.7385 2.76647 34.7962 -3.7385
435 2 1.81397 35.3738 -6.82024 1.81397 35.3738 -6.82024
436 1 3.38689 36.6897 -5.33123 3.38689 36.6897 -5.33123
437 2 5.25313 36.2386 -3.60831 5.25313 36.2386 -3.60831
438 2 5.46445 37.0111 -6.75134 5.46445 37.0111 -6.75134
439 1 6.16018 35.0231 -5.41838 6.16018 35.0231 -5.41838
440 2 8.19486 34.7924 -3.86413 8.19486 34.7924 -3.86413
441 2 10.0721 34.1213 -6.32334 10.0721 34.1213 -6.32334
442 1 9.3298 36.4341 -5.35726 9.3298 36.4341 -5.35726
443 2 11.4334 36.282 -3.86291 11.4334 36.282 -3.86291
444 2 11.227 36.7349 -7.09466 11.227 36.7349 -7.09466
445 1 12.29 34.7971 -5.7378 12.29 34.7971 -5.7378
446 2 14.5066 34.501 -4.65737 14.5066 34.501 -4.65737
447 2 13.8404 35.1648 -7.65799 13.8404 35.1648 -7.65799
448 1 15.325 36.5537 -6.00447 15.325 36.5537 -6.00447
449 2 16.9275 36.039 -4.13946 16.9275 36.039 -4.13946
450 2 17.7004 37.2875 -6.96761 17.7004 37.2875 -6.96761
451 1 18.263 34.9237 -6.02239 18.263 34.9237 -6.02239
452 2 19.755 34.3443 -4.15427 19.755 34.3443 -4.15427
453 2 20.6166 35.3709 -7.07407 20.6166 35.3709 -7.07407
454 1 21.303 36.3224 -4.84745 21.303 36.3224 -4.84745
455 2 23.4985 36.2777 -3.59524 23.4985 36.2777 -3.59524
456 2 23.0601 36.7157 -6.82002 23.0601 36.7157 -6.82002
457 1 24.228 34.9258 -5.61706 24.228 34.9258 -5.61706
458 2 26.5724 34.5192 -4.23695 26.5724 34.5192 -4.23695
459 2 26.0462 35.1881 -7.25207 26.0462 35.1881 -7.25207
460 1 27.1169 36.5339 -5.42401 27.1169 36.5339 -5.42401
461 2 28.9012 36.6085 -3.66705 28.9012 36.6085 -3.66705
462 2 29.2007 36.844 -6.88218 29.2007 36.844 -6.88218
463 1 30.1281 35.0139 -5.25887 30.1281 35.0139 -5.25887
464 2 32.3064 35.18 -3.87191 32.3064 35.18 -3.87191
465 2 31.8432 35.4855 -7.09158 31.8432 35.4855 -7.09158
466 1 33.0375 36.9366 -5.48036 33.0375 36.9366 -5.48036
467 2 35.2327 36.875 -4.10656 35.2327 36.875 -4.10656
468 2 34.6601 37.1252 -7.37183 34.6601 37.1252 -7.37183
469 1 36.0492 35.4704 -5.96623 36.0492 35.4704 -5.96623
470 2 38.1055 35.2813 -4.42012 38.1055 35.2813 -4.42012
471 2 38.0835 35.535 -7.67334 38.0835 35.535 -7.67334
472 1 39.3041 37.0261 -5.95629 39.3041 37.0261 -5.95629
473 2 41.1312 36.5469 -4.03373 41.1312 36.5469 -4.03373
474 2 41.3364 36.7025 -7.36965 41.3364 36.7025 -7.36965
475 1 42.0562 34.8303 -5.53849 42.0562 34.8303 -5.53849
476 2 43.9771 34.1309 -3.90056 43.9771 34.1309 -3.90056
477 2 43.9866 35.402 -6.86369 43.9866 35.402 -6.86369
478 1 41.3885 39.3927 -7.76386 41.3885 39.3927 -7.76386
479 2 44.7768 37.7117 -3.8019 44.7768 37.7117 -3.8019
480 2 43.9696 38.6577 -7.2948 43.9696 38.6577 -7.2948
481 1 45.5084 35.7249 -4.93541 45.5084 35.7249 -4.93541
482 2 47.5697 35.1759 -3.54739 47.5697 35.1759 -3.54739
483 2 47.1668 36.2631 -6.71436 47.1668 36.2631 -6.71436
484 1 48.8753 37.0023 -4.82876 48.8753 37.0023 -4.82876
485 2 50.6943 36.7215 -3.1513 50.6943 36.7215 -3.1513
486 2 50.8871 37.0663 -6.35314 50.8871 37.0663 -6.35314
487 1 52.001 38.391 -4.58378 0.59028 38.391 -4.58378
488 2 2.70558 38.0799 -3.25087 2.70558 38.0799 -3.25087
489 2 2.25018 38.7422 -6.4159 2.25018 38.7422 -6.4159
490 1 3.54395 39.9875 -4.71606 3.54395 39.9875 -4.71606
491 2 5.38021 39.766 -3.04663 5.38021 39.766 -3.04663
492 2 5.62531 39.9977 -6.28578 5.62531 39.9977 -6.28578
493 1 6.36755 38.115 -4.79551 6.36755 38.115 -4.79551
494 2 8.55903 37.858 -3.34399 8.55903 37.858 -3.34399
495 2 8.24595 38.2903 -6.57606 8.24595 38.2903 -6.57606
496 1 9.37119 39.7643 -4.70703 9.37119 39.7643 -4.70703
497 2 11.4047 39.2689 -3.27693 11.4047 39.2689 -3.27693
498 2 11.3475 40.1294 -6.31426 11.3475 40.1294 -6.31426
499 1 12.3057 38.1189 -5.24104 12.3057 38.1189 -5.24104
500 2 14.2546 37.3505 -3.79015 14.2546 37.3505 -3.79015
501 2 14.2013 38.7611 -6.73786 14.2013 38.7611 -6.73786
502 1 15.2548 39.6335 -4.63972 15.2548 39.6335 -4.63972
503 2 17.08 39.1742 -2.86215 17.08 39.1742 -2.86215
504 2 17.4597 40.0663 -5.95546 17.4597 40.0663 -5.95546
505 1 18.3306 38.0495 -4.71561 18.3306 38.0495 -4.71561
506 2 20.1683 37.9597 -3.05229 20.1683 37.9597 -3.05229
507 2 20.2713 38.2535 -6.30029 20.2713 38.2535 -6.30029
508 1 21.1775 39.6646 -4.49477 21.1775 39.6646 -4.49477
509 2 23.2571 39.3019 -3.01948 23.2571 39.3019 -3.01948
510 2 22.9087 40.0053 -6.19504 22.9087 40.0053 -6.19504
511 1 24.1216 38.1757 -5.0771 24.1216 38.1757 -5.0771
512 2 26.0402 37.7587 -3.4744 26.0402 37.7587 -3.4744
513 2 26.0582 38.628 -6.61542 26.0582 38.628 -6.61542
514 1 26.975 39.769 -4.63473 26.975 39.769 -4.63473
515 2 28.9228 39.6567 -3.12808 28.9228 39.6567 -3.12808
516 2 28.6483 40.1219 -6.29743 28.6483 40.1219 -6.29743
517 1 29.9258 38.3316 -5.0912 29.9258 38.3316 -5.0912
518 2 31.8461 38.1645 -3.54453 31.8461 38.1645 -3.54453
519 2 31.7584 38.665 -6.81647 31.7584 38.665 -6.81647
520 1 32.5974 40.1012 -4.83521 32.5974 40.1012 -4.83521
521 2 34.8884 39.7276 -3.68364 34.8884 39.7276 -3.68364
522 2 34.1355 40.6095 -6.73023 34.1355 40.6095 -6.73023
523 1 35.6871 38.6927 -5.86205 35.6871 38.6927 -5.86205
524 2 37.9495 38.7286 -4.39354 37.9495 38.7286 -4.39354
525 2 36.6189 39.8625 -7.9174 36.6189 39.8625 -7.9174
526 1 38.4877 40.3795 -6.25836 38.4877 40.3795 -6.25836
527 2 41.092 39.461 -5.38508 41.092 39.461 -5.38508
528 2 38.9761 38.5935 -7.90296 38.9761 38.5935 -7.90296
529 1 42.9188 37.4724 -5.48556 42.9188 37.4724 -5.48556
530 2 39.2809 41.288 -4.13679 39.2809 41.288 -4.13679
531 2 39.8982 41.6034 -7.99722 39.8982 41.6034 -7.99722
532 1 43.6173 40.6646 -5.82736 43.6173 40.6646 -5.82736
533 2 45.2336 40.5753 -3.93161 45.2336 40.5753 -3.93161
534 2 45.7606 40.925 -7.19881 45.7606 40.925 -7.19881
535 1 46.1923 38.8792 -5.65377 46.1923 38.8792 -5.65377
536 2 47.6598 38.7308 -3.47016 47.6598 38.7308 -3.47016
537 2 48.6034 38.7155 -6.60655 48.6034 38.7155 -6.60655
538 1 49.1861 40.3178 -4.70905 49.1861 40.3178 -4.70905
539 2 51.1224 40.0508 -2.91817 51.1224 40.0508 -2.91817
540 2 51.2005 40.2386 -6.25799 51.2005 40.2386 -6.25799
541 1 52.2542 41.6511 -4.3881 0.843447 41.6511 -4.3881
542 2 2.75858 41.2921 -2.82091 2.75858 41.2921 -2.82091