ITEM: TIMESTEP
816000
ITEM: NUMBER OF ATOMS
810
ITEM: BOX BOUNDS pp pp pp
8.0341777045796159e-01 5.2214187229542503e+01
-1.2098866528569028e+00 5.2226101652855768e+01
-1.0000000000000000e+01 1.0000000000000000e+01
ITEM: ATOMS id type x y z xu yu zu
1 1 0.989515 -0.983934 0.00953893 0.989515 -0.983934 0.00953893
2 2 2.89328 -0.841933 1.5473 2.89328 -0.841933 1.5473
3 2 2.85936 -1.14787 -1.63818 2.85936 -1.14787 -1.63818
4 1 3.77453 0.769421 -0.124688 3.77453 0.769421 -0.124688
5 2 5.50245 0.695589 1.75542 5.50245 0.695589 1.75542
6 2 5.84585 0.706429 -1.62046 5.84585 0.706429 -1.62046
7 1 6.68142 -0.862976 0.182406 6.68142 -0.862976 0.182406
8 2 8.64398 -0.906331 1.74351 8.64398 -0.906331 1.74351
9 2 8.6898 -0.993315 -1.35993 8.6898 -0.993315 -1.35993
10 1 9.6851 0.712255 0.133283 9.6851 0.712255 0.133283
11 2 11.4482 0.670877 1.73492 11.4482 0.670877 1.73492
12 2 11.5262 0.772458 -1.4345 11.5262 0.772458 -1.4345
13 1 12.5027 -1.02142 0.102024 12.5027 -1.02142 0.102024
14 2 14.3472 -0.996769 1.70247 14.3472 -0.996769 1.70247
15 2 14.5016 -0.928138 -1.58523 14.5016 -0.928138 -1.58523
16 1 15.2659 0.864327 0.186232 15.2659 0.864327 0.186232
17 2 17.2358 0.943325 1.7884 17.2358 0.943325 1.7884
18 2 17.1773 0.609011 -1.39786 17.1773 0.609011 -1.39786
19 1 18.069 -0.98118 0.248308 18.069 -0.98118 0.248308
20 2 20.1553 -1.03458 1.78832 20.1553 -1.03458 1.78832
21 2 20.0745 -1.01001 -1.5643 20.0745 -1.01001 -1.5643
22 1 21.0574 0.694855 0.0589761 21.0574 0.694855 0.0589761
23 2 23.0031 0.742221 1.64017 23.0031 0.742221 1.64017
24 2 23.0388 0.83408 -1.57135 23.0388 0.83408 -1.57135
25 1 23.953 -0.904119 0.0337783 23.953 -0.904119 0.0337783
26 2 26.0256 -1.05088 1.6754 26.0256 -1.05088 1.6754
27 2 25.9911 -1.1457 -1.44515 25.9911 -1.1457 -1.44515
28 1 26.8316 0.754966 0.043969 26.8316 0.754966 0.043969
29 2 28.8045 0.796126 1.61164 28.8045 0.796126 1.61164
30 2 28.6552 0.826609 -1.68617 28.6552 0.826609 -1.68617
31 1 29.5583 -0.954894 -0.0568334 29.5583 -0.954894 -0.0568334
32 2 31.5506 -0.946137 1.53489 31.5506 -0.946137 1.53489
33 2 31.5685 -1.15898 -1.66923 31.5685 -1.15898 -1.66923
34 1 32.4469 0.751937 -0.0692333 32.4469 0.751937 -0.0692333
35 2 34.4053 0.705332 1.48672 34.4053 0.705332 1.48672
36 2 34.3615 0.735271 -1.76314 34.3615 0.735271 -1.76314
37 1 35.3186 -1.01275 -0.162604 35.3186 -1.01275 -0.162604
38 2 37.393 -1.09204 1.25849 37.393 -1.09204 1.25849
39 2 37.1115 -0.985547 -1.94374 37.1115 -0.985547 -1.94374
40 1 38.1244 0.763828 -0.283801 38.1244 0.763828 -0.283801
41 2 40.0327 0.756371 1.3871 40.0327 0.756371 1.3871
42 2 40.1064 0.867286 -1.84428 40.1064 0.867286 -1.84428
43 1 40.9225 -0.991115 -0.383701 40.9225 -0.991115 -0.383701
44 2 42.6964 -1.02429 1.3013 42.6964 -1.02429 1.3013
45 2 42.876 -0.739003 -1.95592 42.876 -0.739003 -1.95592
46 1 43.6839 0.854012 -0.131114 43.6839 0.854012 -0.131114
47 2 45.8387 0.917386 1.3346 45.8387 0.917386 1.3346
48 2 45.614 0.745013 -1.94053 45.614 0.745013 -1.94053
49 1 46.6671 -0.924791 -0.352232 46.6671 -0.924791 -0.352232
50 2 48.5112 -1.01612 1.39304 48.5112 -1.01612 1.39304
51 2 48.7291 -0.946913 -1.90802 48.7291 -0.946913 -1.90802
52 1 49.4662 0.790633 -0.260196 49.4662 0.790633 -0.260196
53 2 51.3885 0.948041 1.46324 51.3885 0.948041 1.46324
54 2 51.4932 0.724558 -1.78802 51.4932 0.724558 -1.78802
55 1 0.957035 2.59234 -0.234813 0.957035 2.59234 -0.234813
56 2 2.72535 2.38001 1.52951 2.72535 2.38001 1.52951
57 2 2.99968 2.78141 -1.71546 2.99968 2.78141 -1.71546
58 1 3.72095 4.37588 0.138131 3.72095 4.37588 0.138131
59 2 5.67473 4.18203 1.65924 5.67473 4.18203 1.65924
60 2 5.71392 4.30291 -1.55202 5.71392 4.30291 -1.55202
61 1 6.76552 2.50923 0.0995634 6.76552 2.50923 0.0995634
62 2 8.74483 2.71109 1.7675 8.74483 2.71109 1.7675
63 2 8.7161 2.51961 -1.4723 8.7161 2.51961 -1.4723
64 1 9.55558 4.40841 0.150559 9.55558 4.40841 0.150559
65 2 11.5331 4.46956 1.76352 11.5331 4.46956 1.76352
66 2 11.5 4.2726 -1.4963 11.5 4.2726 -1.4963
67 1 12.364 2.60915 0.22123 12.364 2.60915 0.22123
68 2 14.3707 2.67632 1.7787 14.3707 2.67632 1.7787
69 2 14.3093 2.58336 -1.42593 14.3093 2.58336 -1.42593
70 1 15.2627 4.36452 0.171964 15.2627 4.36452 0.171964
71 2 17.3303 4.35908 1.63386 17.3303 4.35908 1.63386
72 2 17.209 4.36071 -1.51725 17.209 4.36071 -1.51725
73 1 18.1816 2.52789 -0.0212999 18.1816 2.52789 -0.0212999
74 2 20.0392 2.47728 1.67603 20.0392 2.47728 1.67603
75 2 20.1027 2.44216 -1.61323 20.1027 2.44216 -1.61323
76 1 21.006 4.25266 0.0788905 21.006 4.25266 0.0788905
77 2 22.8713 4.36509 1.73126 22.8713 4.36509 1.73126
78 2 22.9138 4.32017 -1.44287 22.9138 4.32017 -1.44287
79 1 24.0017 2.59621 0.111353 24.0017 2.59621 0.111353
80 2 26.0452 2.62785 1.63257 26.0452 2.62785 1.63257
81 2 25.8906 2.42429 -1.54195 25.8906 2.42429 -1.54195
82 1 26.7866 4.35132 -0.164095 26.7866 4.35132 -0.164095
83 2 28.5265 4.3242 1.58597 28.5265 4.3242 1.58597
84 2 28.7604 4.48418 -1.61737 28.7604 4.48418 -1.61737
85 1 29.5663 2.68543 0.0443488 29.5663 2.68543 0.0443488
86 2 31.5685 2.62268 1.54573 31.5685 2.62268 1.54573
87 2 31.6171 2.70915 -1.64789 31.6171 2.70915 -1.64789
88 1 32.443 4.42569 -0.0110846 32.443 4.42569 -0.0110846
89 2 34.2955 4.37739 1.51854 34.2955 4.37739 1.51854
90 2 34.2304 4.41672 -1.77991 34.2304 4.41672 -1.77991
91 1 35.2286 2.50188 -0.174863 35.2286 2.50188 -0.174863
92 2 37.1387 2.59179 1.35002 37.1387 2.59179 1.35002
93 2 37.0591 2.46806 -1.79368 37.0591 2.46806 -1.79368
94 1 38.0742 4.32435 -0.298115 38.0742 4.32435 -0.298115
95 2 39.9316 4.24978 1.39546 39.9316 4.24978 1.39546
96 2 40.2194 4.53842 -1.71462 40.2194 4.53842 -1.71462
97 1 41.0043 2.62854 -0.17833 41.0043 2.62854 -0.17833
98 2 42.8205 2.55175 1.48995 42.8205 2.55175 1.48995
99 2 42.8836 2.59089 -1.74631 42.8836 2.59089 -1.74631
100 1 43.7477 4.50636 -0.128638 43.7477 4.50636 -0.128638
101 2 45.8122 4.25755 1.44013 45.8122 4.25755 1.44013
102 2 45.7096 4.40155 -1.84907 45.7096 4.40155 -1.84907
103 1 46.742 2.58582 -0.290208 46.742 2.58582 -0.290208
104 2 48.6101 2.51718 1.4065 48.6101 2.51718 1.4065
105 2 48.8085 2.59655 -1.84873 48.8085 2.59655 -1.84873
106 1 49.5456 4.324 -0.113581 49.5456 4.324 -0.113581
107 2 51.4537 4.25066 1.57107 51.4537 4.25066 1.57107
108 2 51.4468 4.46461 -1.6681 51.4468 4.46461 -1.6681
109 1 0.893832 6.16545 0.0261878 0.893832 6.16545 0.0261878
110 2 2.75746 6.06848 1.70379 2.75746 6.06848 1.70379
111 2 2.77991 6.13874 -1.53677 2.77991 6.13874 -1.53677
112 1 3.83165 7.857 0.129606 3.83165 7.857 0.129606
113 2 5.79222 7.97564 1.53517 5.79222 7.97564 1.53517
114 2 5.67767 7.67589 -1.65772 5.67767 7.67589 -1.65772
115 1 6.69887 6.09062 0.0758002 6.69887 6.09062 0.0758002
116 2 8.6732 6.23863 1.68705 8.6732 6.23863 1.68705
117 2 8.5776 6.06092 -1.52001 8.5776 6.06092 -1.52001
118 1 9.58045 7.97409 -0.0807398 9.58045 7.97409 -0.0807398
119 2 11.4646 7.94336 1.59679 11.4646 7.94336 1.59679
120 2 11.5911 7.87524 -1.63211 11.5911 7.87524 -1.63211
121 1 12.4247 6.11739 0.0640275 12.4247 6.11739 0.0640275
122 2 14.3118 6.25973 1.70235 14.3118 6.25973 1.70235
123 2 14.4449 6.02108 -1.50651 14.4449 6.02108 -1.50651
124 1 15.2547 7.94848 0.0679343 15.2547 7.94848 0.0679343
125 2 17.2722 7.92034 1.59489 17.2722 7.92034 1.59489
126 2 17.1313 7.81212 -1.63794 17.1313 7.81212 -1.63794
127 1 18.1542 6.17793 0.0595961 18.1542 6.17793 0.0595961
128 2 20.0899 6.03768 1.77465 20.0899 6.03768 1.77465
129 2 20.2061 6.17763 -1.48154 20.2061 6.17763 -1.48154
130 1 21.0685 7.91736 0.267901 21.0685 7.91736 0.267901
131 2 23.1782 7.98193 1.75824 23.1782 7.98193 1.75824
132 2 22.9119 7.91431 -1.44594 22.9119 7.91431 -1.44594
133 1 23.9272 6.17528 0.0963862 23.9272 6.17528 0.0963862
134 2 26.0075 6.17645 1.54988 26.0075 6.17645 1.54988
135 2 25.6397 6.26264 -1.65125 25.6397 6.26264 -1.65125
136 1 26.7687 7.92479 -0.13229 26.7687 7.92479 -0.13229
137 2 28.5499 8.11363 1.55862 28.5499 8.11363 1.55862
138 2 28.812 7.75243 -1.64582 28.812 7.75243 -1.64582
139 1 29.5911 6.22123 0.139603 29.5911 6.22123 0.139603
140 2 31.6728 6.12932 1.66148 31.6728 6.12932 1.66148
141 2 31.4332 6.24244 -1.52296 31.4332 6.24244 -1.52296
142 1 32.4902 7.92466 0.0436785 32.4902 7.92466 0.0436785
143 2 34.4806 7.8117 1.58525 34.4806 7.8117 1.58525
144 2 34.2196 7.94525 -1.64479 34.2196 7.94525 -1.64479
145 1 35.2903 6.14211 -0.156863 35.2903 6.14211 -0.156863
146 2 37.2559 6.06701 1.44487 37.2559 6.06701 1.44487
147 2 37.0823 6.32955 -1.89026 37.0823 6.32955 -1.89026
148 1 38.1128 7.88838 -0.193749 38.1128 7.88838 -0.193749
149 2 39.9876 8.17646 1.54282 39.9876 8.17646 1.54282
150 2 40.1412 7.77751 -1.79302 40.1412 7.77751 -1.79302
151 1 40.995 6.27506 -0.00816519 40.995 6.27506 -0.00816519
152 2 43.0281 6.2384 1.49222 43.0281 6.2384 1.49222
153 2 42.8624 6.33689 -1.7123 42.8624 6.33689 -1.7123
154 1 43.9071 7.98098 -0.074708 43.9071 7.98098 -0.074708
155 2 45.8511 7.93154 1.53932 45.8511 7.93154 1.53932
156 2 45.8291 8.03407 -1.75078 45.8291 8.03407 -1.75078
157 1 46.6535 6.12203 -0.233663 46.6535 6.12203 -0.233663
158 2 48.6614 6.13594 1.42003 48.6614 6.13594 1.42003
159 2 48.6013 6.0881 -1.84724 48.6013 6.0881 -1.84724
160 1 49.5165 8.00452 -0.234802 49.5165 8.00452 -0.234802
161 2 51.3625 8.09806 1.48744 51.3625 8.09806 1.48744
162 2 51.5781 7.82735 -1.81347 51.5781 7.82735 -1.81347
163 1 0.984714 9.70741 -0.22517 0.984714 9.70741 -0.22517
164 2 2.84315 9.86034 1.60864 2.84315 9.86034 1.60864
165 2 2.90665 9.43595 -1.70621 2.90665 9.43595 -1.70621
166 1 3.87451 11.3301 -0.253684 3.87451 11.3301 -0.253684
167 2 5.86996 11.4792 1.37339 5.86996 11.4792 1.37339
168 2 5.83122 11.2801 -1.96955 5.83122 11.2801 -1.96955
169 1 6.74322 9.59118 -0.242849 6.74322 9.59118 -0.242849
170 2 8.65029 9.83332 1.49572 8.65029 9.83332 1.49572
171 2 8.71421 9.70462 -1.87925 8.71421 9.70462 -1.87925
172 1 9.52095 11.5008 -0.19739 9.52095 11.5008 -0.19739
173 2 11.5006 11.7042 1.34802 11.5006 11.7042 1.34802
174 2 11.3542 11.3138 -1.96499 11.3542 11.3138 -1.96499
175 1 12.4633 9.65914 -0.115031 12.4633 9.65914 -0.115031
176 2 14.267 9.72115 1.60681 14.267 9.72115 1.60681
177 2 14.3765 9.65365 -1.63799 14.3765 9.65365 -1.63799
178 1 15.3304 11.4981 -0.00865237 15.3304 11.4981 -0.00865237
179 2 17.2355 11.448 1.60652 17.2355 11.448 1.60652
180 2 17.2269 11.5102 -1.67356 17.2269 11.5102 -1.67356
181 1 18.1498 9.68265 -0.147432 18.1498 9.68265 -0.147432
182 2 19.89 9.80135 1.67077 19.89 9.80135 1.67077
183 2 20.3442 9.78953 -1.51119 20.3442 9.78953 -1.51119
184 1 21.0042 11.5217 0.146591 21.0042 11.5217 0.146591
185 2 23.1554 11.5933 1.59953 23.1554 11.5933 1.59953
186 2 22.9676 11.5892 -1.53301 22.9676 11.5892 -1.53301
187 1 23.8976 9.76254 0.0250886 23.8976 9.76254 0.0250886
188 2 25.8118 9.66951 1.54255 25.8118 9.66951 1.54255
189 2 25.7423 9.84819 -1.6308 25.7423 9.84819 -1.6308
190 1 26.6686 11.5459 0.0337989 26.6686 11.5459 0.0337989
191 2 28.5349 11.5382 1.75368 28.5349 11.5382 1.75368
192 2 28.5639 11.5424 -1.61691 28.5639 11.5424 -1.61691
193 1 29.5205 9.83779 -0.0555664 29.5205 9.83779 -0.0555664
194 2 31.4207 9.72899 1.6141 31.4207 9.72899 1.6141
195 2 31.5054 9.76332 -1.65735 31.5054 9.76332 -1.65735
196 1 32.387 11.4619 0.0283644 32.387 11.4619 0.0283644
197 2 34.4189 11.395 1.58391 34.4189 11.395 1.58391
198 2 34.1929 11.5316 -1.67199 34.1929 11.5316 -1.67199
199 1 35.2887 9.69843 -0.0524697 35.2887 9.69843 -0.0524697
200 2 37.2575 9.7097 1.44999 37.2575 9.7097 1.44999
201 2 37.0731 9.74952 -1.72858 37.0731 9.74952 -1.72858
202 1 38.1849 11.4547 -0.153058 38.1849 11.4547 -0.153058
203 2 40.044 11.6443 1.42621 40.044 11.6443 1.42621
204 2 40.0474 11.2636 -1.81858 40.0474 11.2636 -1.81858
205 1 40.9585 9.66228 -0.10995 40.9585 9.66228 -0.10995
206 2 42.9837 9.80943 1.45654 42.9837 9.80943 1.45654
207 2 42.9657 9.58913 -1.76036 42.9657 9.58913 -1.76036
208 1 43.8332 11.477 -0.26116 43.8332 11.477 -0.26116
209 2 45.7737 11.5569 1.43744 45.7737 11.5569 1.43744
210 2 45.714 11.4069 -1.80931 45.714 11.4069 -1.80931
211 1 46.756 9.74825 0.0106893 46.756 9.74825 0.0106893
212 2 48.7559 9.7271 1.46142 48.7559 9.7271 1.46142
213 2 48.5736 9.7646 -1.80313 48.5736 9.7646 -1.80313
214 1 49.5628 11.5046 -0.23583 49.5628 11.5046 -0.23583
215 2 51.5763 11.607 1.34012 51.5763 11.607 1.34012
216 2 51.4629 11.3527 -1.89499 51.4629 11.3527 -1.89499
217 1 1.01865 13.1995 -0.361669 1.01865 13.1995 -0.361669
218 2 2.91024 13.2361 1.2565 2.91024 13.2361 1.2565
219 2 2.87013 13.0976 -1.97343 2.87013 13.0976 -1.97343
220 1 3.75354 14.994 -0.358494 3.75354 14.994 -0.358494
221 2 5.64869 14.8667 1.42652 5.64869 14.8667 1.42652
222 2 5.84589 15.2439 -1.80894 5.84589 15.2439 -1.80894
223 1 6.64415 13.2489 -0.323312 6.64415 13.2489 -0.323312
224 2 8.4937 13.255 1.34067 8.4937 13.255 1.34067
225 2 8.62061 13.2801 -1.84807 8.62061 13.2801 -1.84807
226 1 9.49465 15.0997 -0.256391 9.49465 15.0997 -0.256391
227 2 11.4456 14.8195 1.32847 11.4456 14.8195 1.32847
228 2 11.4307 15.2796 -1.82277 11.4307 15.2796 -1.82277
229 1 12.4169 13.223 -0.491513 12.4169 13.223 -0.491513
230 2 14.1399 13.3837 1.38088 14.1399 13.3837 1.38088
231 2 14.6087 13.1683 -1.8706 14.6087 13.1683 -1.8706
232 1 15.3258 15.0494 -0.225367 15.3258 15.0494 -0.225367
233 2 17.2231 14.9365 1.46845 17.2231 14.9365 1.46845
234 2 17.436 15.1364 -1.70372 17.436 15.1364 -1.70372
235 1 18.1416 13.1674 -0.176519 18.1416 13.1674 -0.176519
236 2 20.0055 13.3588 1.50126 20.0055 13.3588 1.50126
237 2 20.2525 13.1567 -1.67518 20.2525 13.1567 -1.67518
238 1 21.0379 15.0471 -0.0689998 21.0379 15.0471 -0.0689998
239 2 22.8611 14.9993 1.67599 22.8611 14.9993 1.67599
240 2 22.9877 15.1801 -1.54837 22.9877 15.1801 -1.54837
241 1 23.8707 13.3791 -0.0359039 23.8707 13.3791 -0.0359039
242 2 25.6992 13.3509 1.68203 25.6992 13.3509 1.68203
243 2 25.8513 13.3311 -1.64528 25.8513 13.3311 -1.64528
244 1 26.7653 15.115 0.107192 26.7653 15.115 0.107192
245 2 28.6798 15.037 1.71946 28.6798 15.037 1.71946
246 2 28.6657 15.0559 -1.55114 28.6657 15.0559 -1.55114
247 1 29.555 13.2046 0.0724305 29.555 13.2046 0.0724305
248 2 31.5574 13.2523 1.55153 31.5574 13.2523 1.55153
249 2 31.3527 13.2238 -1.58516 31.3527 13.2238 -1.58516
250 1 32.3877 15.0182 0.000392145 32.3877 15.0182 0.000392145
251 2 34.3729 14.9787 1.46155 34.3729 14.9787 1.46155
252 2 34.2911 14.9651 -1.67926 34.2911 14.9651 -1.67926
253 1 35.2343 13.2048 -0.102384 35.2343 13.2048 -0.102384
254 2 37.1731 13.4037 1.42598 37.1731 13.4037 1.42598
255 2 37.0661 13.174 -1.77658 37.0661 13.174 -1.77658
256 1 38.0206 15.0116 -0.374714 38.0206 15.0116 -0.374714
257 2 39.9847 14.8369 1.23937 39.9847 14.8369 1.23937
258 2 40.1992 15.219 -1.92025 40.1992 15.219 -1.92025
259 1 40.9954 13.2853 -0.453203 40.9954 13.2853 -0.453203
260 2 42.9171 13.3505 1.21483 42.9171 13.3505 1.21483
261 2 43.1323 13.202 -1.89311 43.1323 13.202 -1.89311
262 1 43.9322 15.0301 -0.303098 43.9322 15.0301 -0.303098
263 2 45.7933 15.0218 1.45336 45.7933 15.0218 1.45336
264 2 45.809 15.0403 -2.03939 45.809 15.0403 -2.03939
265 1 46.7775 13.3026 -0.302473 46.7775 13.3026 -0.302473
266 2 48.7421 13.4468 1.24283 48.7421 13.4468 1.24283
267 2 48.7247 13.1302 -1.99217 48.7247 13.1302 -1.99217
268 1 49.5925 15.1226 -0.48561 49.5925 15.1226 -0.48561
269 2 51.4865 15.0655 1.15274 51.4865 15.0655 1.15274
270 2 51.531 14.9694 -2.04255 51.531 14.9694 -2.04255
271 1 0.992715 16.7915 -0.458076 0.992715 16.7915 -0.458076
272 2 2.79121 16.7409 1.36697 2.79121 16.7409 1.36697
273 2 2.96311 16.7807 -1.90021 2.96311 16.7807 -1.90021
274 1 3.83204 18.5776 -0.0940625 3.83204 18.5776 -0.0940625
275 2 5.67073 18.9027 1.54757 5.67073 18.9027 1.54757
276 2 5.77633 18.4729 -1.70122 5.77633 18.4729 -1.70122
277 1 6.64978 16.9081 0.116835 6.64978 16.9081 0.116835
278 2 8.78033 16.7671 1.54293 8.78033 16.7671 1.54293
279 2 8.42915 16.9582 -1.68552 8.42915 16.9582 -1.68552
280 1 9.53313 18.6846 -0.043592 9.53313 18.6846 -0.043592
281 2 11.407 18.6935 1.53215 11.407 18.6935 1.53215
282 2 11.2998 18.5385 -1.76491 11.2998 18.5385 -1.76491
283 1 12.3416 16.7821 -0.0281284 12.3416 16.7821 -0.0281284
284 2 14.301 16.5978 1.59372 14.301 16.5978 1.59372
285 2 14.2921 16.9355 -1.62904 14.2921 16.9355 -1.62904
286 1 15.2951 18.5781 0.0325482 15.2951 18.5781 0.0325482
287 2 17.1365 18.5466 1.73372 17.1365 18.5466 1.73372
288 2 17.3163 18.6555 -1.47762 17.3163 18.6555 -1.47762
289 1 18.1641 16.8625 0.0446502 18.1641 16.8625 0.0446502
290 2 20.1177 16.7027 1.69529 20.1177 16.7027 1.69529
291 2 20.065 17.0191 -1.49843 20.065 17.0191 -1.49843
292 1 21.0434 18.6526 0.285025 21.0434 18.6526 0.285025
293 2 23.0751 18.8012 1.71443 23.0751 18.8012 1.71443
294 2 22.7947 18.6391 -1.52172 22.7947 18.6391 -1.52172
295 1 23.8752 16.9267 0.162086 23.8752 16.9267 0.162086
296 2 25.8168 16.8232 1.72873 25.8168 16.8232 1.72873
297 2 25.8536 16.9605 -1.45704 25.8536 16.9605 -1.45704
298 1 26.7018 18.6424 0.234914 26.7018 18.6424 0.234914
299 2 28.6408 18.6917 1.69172 28.6408 18.6917 1.69172
300 2 28.4734 18.5325 -1.55204 28.4734 18.5325 -1.55204
301 1 29.554 16.8683 0.119231 29.554 16.8683 0.119231
302 2 31.4877 16.7348 1.63358 31.4877 16.7348 1.63358
303 2 31.3925 16.7274 -1.5991 31.3925 16.7274 -1.5991
304 1 32.4341 18.5587 0.050077 32.4341 18.5587 0.050077
305 2 34.447 18.5962 1.54294 34.447 18.5962 1.54294
306 2 34.28 18.5995 -1.65944 34.28 18.5995 -1.65944
307 1 35.2464 16.775 -0.139173 35.2464 16.775 -0.139173
308 2 37.2782 16.7538 1.28979 37.2782 16.7538 1.28979
309 2 36.8296 16.6986 -1.88944 36.8296 16.6986 -1.88944
310 1 38.1321 18.5862 -0.411476 38.1321 18.5862 -0.411476
311 2 39.9367 18.7753 1.36533 39.9367 18.7753 1.36533
312 2 40.1093 18.5053 -1.87359 40.1093 18.5053 -1.87359
313 1 40.9729 16.8342 -0.127165 40.9729 16.8342 -0.127165
314 2 42.996 16.7283 1.33302 42.996 16.7283 1.33302
315 2 42.9207 16.7477 -1.86985 42.9207 16.7477 -1.86985
316 1 43.8859 18.5875 -0.199133 43.8859 18.5875 -0.199133
317 2 46.0621 18.7928 1.2948 46.0621 18.7928 1.2948
318 2 45.6929 18.5657 -1.97886 45.6929 18.5657 -1.97886
319 1 46.7894 16.7857 -0.294203 46.7894 16.7857 -0.294203
320 2 48.7775 16.7827 1.2294 48.7775 16.7827 1.2294
321 2 48.6173 17.0276 -1.99917 48.6173 17.0276 -1.99917
322 1 49.6798 18.6622 -0.396005 49.6798 18.6622 -0.396005
323 2 51.6089 18.5723 1.19654 51.6089 18.5723 1.19654
324 2 51.5966 18.6816 -2.08832 51.5966 18.6816 -2.08832
325 1 1.06307 20.4745 -0.371333 1.06307 20.4745 -0.371333
326 2 2.94605 20.6905 1.34644 2.94605 20.6905 1.34644
327 2 3.12805 20.2742 -1.90013 3.12805 20.2742 -1.90013
328 1 3.95241 22.2356 -0.364136 3.95241 22.2356 -0.364136
329 2 5.70345 22.1612 1.37962 5.70345 22.1612 1.37962
330 2 5.89444 22.221 -1.89518 5.89444 22.221 -1.89518
331 1 6.63269 20.4188 -0.261553 6.63269 20.4188 -0.261553
332 2 8.54846 20.5092 1.43427 8.54846 20.5092 1.43427
333 2 8.58856 20.3243 -1.83962 8.58856 20.3243 -1.83962
334 1 9.55846 22.1996 -0.342437 9.55846 22.1996 -0.342437
335 2 11.4588 22.0303 1.39038 11.4588 22.0303 1.39038
336 2 11.6089 22.2712 -1.88095 11.6089 22.2712 -1.88095
337 1 12.351 20.4032 -0.308179 12.351 20.4032 -0.308179
338 2 14.2788 20.3191 1.53609 14.2788 20.3191 1.53609
339 2 14.4516 20.435 -1.56224 14.4516 20.435 -1.56224
340 1 15.2839 22.1023 0.140209 15.2839 22.1023 0.140209
341 2 17.1975 22.08 1.88023 17.1975 22.08 1.88023
342 2 17.3506 22.1742 -1.34365 17.3506 22.1742 -1.34365
343 1 18.1872 20.3922 0.237842 18.1872 20.3922 0.237842
344 2 20.104 20.4074 1.81116 20.104 20.4074 1.81116
345 2 20.0076 20.4661 -1.42406 20.0076 20.4661 -1.42406
346 1 21.0479 22.232 0.193176 21.0479 22.232 0.193176
347 2 23.0778 22.1524 1.6869 23.0778 22.1524 1.6869
348 2 22.8285 22.3393 -1.58004 22.8285 22.3393 -1.58004
349 1 23.7803 20.4119 -0.0907989 23.7803 20.4119 -0.0907989
350 2 25.7215 20.6768 1.58543 25.7215 20.6768 1.58543
351 2 25.8036 20.2582 -1.54274 25.8036 20.2582 -1.54274
352 1 26.7796 22.2616 -0.143815 26.7796 22.2616 -0.143815
353 2 28.7757 22.3549 1.41253 28.7757 22.3549 1.41253
354 2 28.5695 22.1193 -1.74474 28.5695 22.1193 -1.74474
355 1 29.5278 20.3653 -0.0606167 29.5278 20.3653 -0.0606167
356 2 31.4261 20.4261 1.62114 31.4261 20.4261 1.62114
357 2 31.4425 20.2157 -1.71458 31.4425 20.2157 -1.71458
358 1 32.3814 22.185 -0.0612697 32.3814 22.185 -0.0612697
359 2 34.2607 22.178 1.4266 34.2607 22.178 1.4266
360 2 34.2334 22.074 -1.79999 34.2334 22.074 -1.79999
361 1 35.2733 20.3911 -0.12815 35.2733 20.3911 -0.12815
362 2 37.3864 20.2125 1.33226 37.3864 20.2125 1.33226
363 2 37.1139 20.5915 -1.97051 37.1139 20.5915 -1.97051
364 1 38.0534 22.2179 -0.182906 38.0534 22.2179 -0.182906
365 2 40.0665 22.1891 1.28717 40.0665 22.1891 1.28717
366 2 39.8696 22.2372 -1.91291 39.8696 22.2372 -1.91291
367 1 40.9051 20.457 -0.470488 40.9051 20.457 -0.470488
368 2 42.7242 20.4423 1.23997 42.7242 20.4423 1.23997
369 2 43.0271 20.3286 -1.9338 43.0271 20.3286 -1.9338
370 1 43.9407 22.1221 -0.286204 43.9407 22.1221 -0.286204
371 2 46.0217 22.0549 1.16516 46.0217 22.0549 1.16516
372 2 45.7015 22.155 -2.03632 45.7015 22.155 -2.03632
373 1 46.7993 20.3633 -0.589582 46.7993 20.3633 -0.589582
374 2 48.6017 20.293 1.28025 48.6017 20.293 1.28025
375 2 48.8174 20.4952 -2.02759 48.8174 20.4952 -2.02759
376 1 49.5804 22.1394 -0.112947 49.5804 22.1394 -0.112947
377 2 51.5355 22.2085 1.41026 51.5355 22.2085 1.41026
378 2 51.5046 22.3534 -1.77818 51.5046 22.3534 -1.77818
379 1 1.0683 24.0172 -0.151247 1.0683 24.0172 -0.151247
380 2 3.02076 23.9772 1.35713 3.02076 23.9772 1.35713
381 2 2.86366 24.0133 -1.86432 2.86366 24.0133 -1.86432
382 1 3.79088 25.7614 -0.236561 3.79088 25.7614 -0.236561
383 2 5.71191 25.8827 1.35327 5.71191 25.8827 1.35327
384 2 5.72764 25.7592 -1.79802 5.72764 25.7592 -1.79802
385 1 6.64066 23.9586 -0.152143 6.64066 23.9586 -0.152143
386 2 8.61698 23.9589 1.33924 8.61698 23.9589 1.33924
387 2 8.57671 23.9774 -1.83854 8.57671 23.9774 -1.83854
388 1 9.47573 25.6765 -0.327309 9.47573 25.6765 -0.327309
389 2 11.3787 25.5195 1.41254 11.3787 25.5195 1.41254
390 2 11.6021 25.719 -1.62483 11.6021 25.719 -1.62483
391 1 12.4837 23.9413 -0.0853094 12.4837 23.9413 -0.0853094
392 2 14.2221 23.9876 1.69204 14.2221 23.9876 1.69204
393 2 14.6544 23.9158 -1.50773 14.6544 23.9158 -1.50773
394 1 15.3681 25.7469 0.199672 15.3681 25.7469 0.199672
395 2 17.1744 25.7561 1.95462 17.1744 25.7561 1.95462
396 2 17.3514 25.7103 -1.25838 17.3514 25.7103 -1.25838
397 1 18.1798 23.9588 0.41628 18.1798 23.9588 0.41628
398 2 20.1494 23.8537 1.9459 20.1494 23.8537 1.9459
399 2 20.0525 24.0606 -1.24822 20.0525 24.0606 -1.24822
400 1 21.0221 25.6599 0.484618 21.0221 25.6599 0.484618
401 2 23.2704 25.5976 1.82927 23.2704 25.5976 1.82927
402 2 22.6966 25.6506 -1.36851 22.6966 25.6506 -1.36851
403 1 23.8776 23.9472 0.0927225 23.8776 23.9472 0.0927225
404 2 25.8636 23.8121 1.65891 25.8636 23.8121 1.65891
405 2 25.555 23.9843 -1.60881 25.555 23.9843 -1.60881
406 1 26.617 25.6771 -0.0676699 26.617 25.6771 -0.0676699
407 2 28.6309 25.655 1.34748 28.6309 25.655 1.34748
408 2 28.3672 25.6508 -1.74915 28.3672 25.6508 -1.74915
409 1 29.5932 23.992 -0.268518 29.5932 23.992 -0.268518
410 2 31.5026 24.2289 1.34118 31.5026 24.2289 1.34118
411 2 31.5579 23.9063 -1.91648 31.5579 23.9063 -1.91648
412 1 32.3575 25.8493 -0.43526 32.3575 25.8493 -0.43526
413 2 34.3259 25.6735 1.21822 34.3259 25.6735 1.21822
414 2 34.2707 25.7735 -1.97712 34.2707 25.7735 -1.97712
415 1 35.2201 23.8687 -0.376775 35.2201 23.8687 -0.376775
416 2 37.0672 24.0446 1.26843 37.0672 24.0446 1.26843
417 2 37.1758 23.7707 -1.97007 37.1758 23.7707 -1.97007
418 1 38.0024 25.6787 -0.463785 38.0024 25.6787 -0.463785
419 2 40.1593 25.8722 1.04812 40.1593 25.8722 1.04812
420 2 40.0095 25.6595 -2.0351 40.0095 25.6595 -2.0351
421 1 41.0291 23.9467 -0.350021 41.0291 23.9467 -0.350021
422 2 43.1699 23.9724 1.32135 43.1699 23.9724 1.32135
423 2 42.8809 23.904 -1.93541 42.8809 23.904 -1.93541
424 1 43.9861 25.7443 -0.525446 43.9861 25.7443 -0.525446
425 2 45.9318 25.8198 1.04925 45.9318 25.8198 1.04925
426 2 45.8565 25.5539 -2.23959 45.8565 25.5539 -2.23959
427 1 46.7523 23.8887 -0.429512 46.7523 23.8887 -0.429512
428 2 48.4525 24.0104 1.25127 48.4525 24.0104 1.25127
429 2 48.7118 23.7634 -1.83586 48.7118 23.7634 -1.83586
430 1 49.5549 25.6481 -0.342401 49.5549 25.6481 -0.342401
431 2 51.3984 25.8954 1.32868 51.3984 25.8954 1.32868
432 2 51.6035 25.5679 -1.93589 51.6035 25.5679 -1.93589
433 1 0.898899 27.5628 -0.447667 0.898899 27.5628 -0.447667
434 2 2.7961 27.4537 1.25326 2.7961 27.4537 1.25326
435 2 2.94827 27.5016 -1.88908 2.94827 27.5016 -1.88908
436 1 3.81866 29.2315 -0.253076 3.81866 29.2315 -0.253076
437 2 5.8101 29.3242 1.35348 5.8101 29.3242 1.35348
438 2 5.79385 29.1224 -1.85809 5.79385 29.1224 -1.85809
439 1 6.71727 27.5472 -0.255614 6.71727 27.5472 -0.255614
440 2 8.48768 27.357 1.45095 8.48768 27.357 1.45095
441 2 8.78247 27.6914 -1.69417 8.78247 27.6914 -1.69417
442 1 9.50326 29.225 0.153473 9.50326 29.225 0.153473
443 2 11.6777 29.1991 1.58975 11.6777 29.1991 1.58975
444 2 11.5234 29.2076 -1.56067 11.5234 29.2076 -1.56067
445 1 12.3736 27.4697 0.0524364 12.3736 27.4697 0.0524364
446 2 14.282 27.3899 1.79197 14.282 27.3899 1.79197
447 2 14.4754 27.6627 -1.35925 14.4754 27.6627 -1.35925
448 1 15.2385 29.3196 0.459651 15.2385 29.3196 0.459651
449 2 17.3735 29.4989 2.01928 17.3735 29.4989 2.01928
450 2 17.0946 29.319 -1.22122 17.0946 29.319 -1.22122
451 1 18.1262 27.6058 0.396818 18.1262 27.6058 0.396818
452 2 20.212 27.8406 1.86095 20.212 27.8406 1.86095
453 2 19.9765 27.2867 -1.24766 19.9765 27.2867 -1.24766
454 1 21.0097 29.2572 -0.0868069 21.0097 29.2572 -0.0868069
455 2 22.9416 29.2882 1.5777 22.9416 29.2882 1.5777
456 2 23.0246 29.2603 -1.66058 23.0246 29.2603 -1.66058
457 1 23.8859 27.5475 0.100821 23.8859 27.5475 0.100821
458 2 25.7608 27.3687 1.64807 25.7608 27.3687 1.64807
459 2 25.7181 27.5878 -1.59881 25.7181 27.5878 -1.59881
460 1 26.6658 29.2192 0.0445444 26.6658 29.2192 0.0445444
461 2 28.714 29.3145 1.53299 28.714 29.3145 1.53299
462 2 28.4005 29.3746 -1.75326 28.4005 29.3746 -1.75326
463 1 29.4935 27.5212 -0.228335 29.4935 27.5212 -0.228335
464 2 31.5154 27.5961 1.28852 31.5154 27.5961 1.28852
465 2 31.2144 27.54 -1.96851 31.2144 27.54 -1.96851
466 1 32.3769 29.3235 -0.52676 32.3769 29.3235 -0.52676
467 2 34.2418 29.3691 1.18802 34.2418 29.3691 1.18802
468 2 34.4767 29.2721 -2.10267 34.4767 29.2721 -2.10267
469 1 35.2533 27.5196 -0.424561 35.2533 27.5196 -0.424561
470 2 37.306 27.6145 1.03031 37.306 27.6145 1.03031
471 2 37.1144 27.4559 -2.17111 37.1144 27.4559 -2.17111
472 1 38.1109 29.2625 -0.738148 38.1109 29.2625 -0.738148
473 2 39.927 29.3307 0.961352 39.927 29.3307 0.961352
474 2 40.1459 29.4015 -2.19862 40.1459 29.4015 -2.19862
475 1 41.0259 27.6016 -0.622397 41.0259 27.6016 -0.622397
476 2 42.9859 27.5513 0.992445 42.9859 27.5513 0.992445
477 2 42.8901 27.3489 -2.24598 42.8901 27.3489 -2.24598
478 1 43.8837 29.265 -0.764407 43.8837 29.265 -0.764407
479 2 45.7497 29.3013 0.991681 45.7497 29.3013 0.991681
480 2 45.7979 29.3307 -2.28477 45.7979 29.3307 -2.28477
481 1 46.7591 27.3939 -0.753707 46.7591 27.3939 -0.753707
482 2 48.4329 27.607 1.09113 48.4329 27.607 1.09113
483 2 48.8805 27.3822 -2.15177 48.8805 27.3822 -2.15177
484 1 49.5016 29.4402 -0.541663 49.5016 29.4402 -0.541663
485 2 51.2857 29.3356 1.16882 51.2857 29.3356 1.16882
486 2 51.5797 29.4382 -2.05453 51.5797 29.4382 -2.05453
487 1 0.996105 31.0579 -0.338171 0.996105 31.0579 -0.338171
488 2 2.86893 31.2123 1.3439 2.86893 31.2123 1.3439
489 2 3.06052 30.8784 -1.92875 3.06052 30.8784 -1.92875
490 1 3.78201 32.8561 -0.417373 3.78201 32.8561 -0.417373
491 2 5.67162 32.6847 1.28721 5.67162 32.6847 1.28721
492 2 5.74514 32.8207 -1.98699 5.74514 32.8207 -1.98699
493 1 6.68414 31.0369 -0.332861 6.68414 31.0369 -0.332861
494 2 8.32394 31.068 1.57332 8.32394 31.068 1.57332
495 2 8.72088 30.8776 -1.66269 8.72088 30.8776 -1.66269
496 1 9.46985 32.773 0.129598 9.46985 32.773 0.129598
497 2 11.5186 32.7896 1.70873 11.5186 32.7896 1.70873
498 2 11.1927 32.8223 -1.62554 11.1927 32.8223 -1.62554
499 1 12.4506 31.0151 0.0025137 12.4506 31.0151 0.0025137
500 2 14.1606 31.2437 1.87446 14.1606 31.2437 1.87446
501 2 14.4838 31.0131 -1.41913 14.4838 31.0131 -1.41913
502 1 15.2901 32.8494 0.180319 15.2901 32.8494 0.180319
503 2 17.2436 33.0981 1.73954 17.2436 33.0981 1.73954
504 2 17.1782 32.7736 -1.50003 17.1782 32.7736 -1.50003
505 1 18.1802 31.1139 0.269884 18.1802 31.1139 0.269884
506 2 20.3161 31.1416 1.53362 20.3161 31.1416 1.53362
507 2 19.7949 30.9486 -1.58426 19.7949 30.9486 -1.58426
508 1 20.971 32.8848 -0.171196 20.971 32.8848 -0.171196
509 2 22.8317 33.0616 1.49255 22.8317 33.0616 1.49255
510 2 22.908 32.8027 -1.72045 22.908 32.8027 -1.72045
511 1 23.7835 31.1378 0.0994146 23.7835 31.1378 0.0994146
512 2 25.8017 31.1826 1.66503 25.8017 31.1826 1.66503
513 2 25.6285 31.0177 -1.55289 25.6285 31.0177 -1.55289
514 1 26.6963 32.823 -0.0708264 26.6963 32.823 -0.0708264
515 2 28.8072 33.03 1.38341 28.8072 33.03 1.38341
516 2 28.5121 32.8188 -1.8412 28.5121 32.8188 -1.8412
517 1 29.5469 31.1045 -0.185593 29.5469 31.1045 -0.185593
518 2 31.6997 31.0547 1.25702 31.6997 31.0547 1.25702
519 2 31.3391 31.1516 -2.01165 31.3391 31.1516 -2.01165
520 1 32.3619 32.8405 -0.430215 32.3619 32.8405 -0.430215
521 2 34.3099 32.7686 1.29588 34.3099 32.7686 1.29588
522 2 34.4387 32.9453 -1.91105 34.4387 32.9453 -1.91105
523 1 35.2032 31.0764 -0.359973 35.2032 31.0764 -0.359973
524 2 37.3174 30.883 0.985363 37.3174 30.883 0.985363
525 2 36.9677 31.2931 -2.11899 36.9677 31.2931 -2.11899
526 1 38.2111 32.8124 -0.482642 38.2111 32.8124 -0.482642
527 2 40.3125 33.0631 0.928511 40.3125 33.0631 0.928511
528 2 39.9039 32.7662 -2.17628 39.9039 32.7662 -2.17628
529 1 40.9974 31.1222 -0.482429 40.9974 31.1222 -0.482429
530 2 42.9635 31.0647 1.01406 42.9635 31.0647 1.01406
531 2 42.7817 31.1344 -2.2566 42.7817 31.1344 -2.2566
532 1 43.8429 32.8535 -0.594175 43.8429 32.8535 -0.594175
533 2 45.676 32.8552 1.11563 45.676 32.8552 1.11563
534 2 45.9056 33.0498 -2.05698 45.9056 33.0498 -2.05698
535 1 46.6794 31.1688 -0.457553 46.6794 31.1688 -0.457553
536 2 48.6145 31.3708 1.15583 48.6145 31.3708 1.15583