ITEM: TIMESTEP
5322000
ITEM: NUMBER OF ATOMS
810
ITEM: BOX BOUNDS pp pp pp
8.0341777045796159e-01 5.2214187229542503e+01
-1.2340737397380817e+01 6.3356952397379686e+01
-1.0000000000000000e+01 1.0000000000000000e+01
ITEM: ATOMS id type x y z xu yu zu
1 1 1.06636 61.9854 1.13376 1.06636 -13.7123 1.13376
2 2 2.96395 61.0094 2.57357 2.96395 -14.6882 2.57357
3 2 3.20734 62.8449 -0.0502314 3.20734 -12.8528 -0.0502314
4 1 4.0812 63.1624 2.24907 4.0812 -12.5353 2.24907
5 2 5.68516 61.8765 3.57019 5.68516 -13.8211 3.57019
6 2 6.23617 -11.4877 1.31552 6.23617 -11.4877 1.31552
7 1 6.86433 61.7831 1.39823 6.86433 -13.9146 1.39823
8 2 8.3634 60.6758 2.97456 8.3634 -15.0219 2.97456
9 2 8.8997 62.5954 0.466458 8.8997 -13.1023 0.466458
10 1 9.61249 62.8293 2.78328 9.61249 -12.8684 2.78328
11 2 11.5013 61.6426 4.12618 11.5013 -14.0551 4.12618
12 2 11.5794 -11.8198 1.62953 11.5794 -11.8198 1.62953
13 1 12.457 61.3807 1.83545 12.457 -14.317 1.83545
14 2 14.3817 60.4396 3.18355 14.3817 -15.2581 3.18355
15 2 14.3412 62.4517 0.619063 14.3412 -13.246 0.619063
16 1 15.3601 62.7528 2.83178 15.3601 -12.9449 2.83178
17 2 17.2069 61.6796 4.04788 17.2069 -14.0181 4.04788
18 2 17.2563 -11.9432 1.62236 17.2563 -11.9432 1.62236
19 1 18.2489 61.4155 1.76994 18.2489 -14.2822 1.76994
20 2 20.346 60.5837 2.82841 20.346 -15.114 2.82841
21 2 19.8353 62.6139 0.316984 19.8353 -13.0838 0.316984
22 1 21.0116 63.0052 2.47308 21.0116 -12.6925 2.47308
23 2 23.0707 62.2483 3.54665 23.0707 -13.4493 3.54665
24 2 22.6852 -11.5587 0.919559 22.6852 -11.5587 0.919559
25 1 23.8784 61.9155 1.22803 23.8784 -13.7822 1.22803
26 2 25.8429 61.1706 2.457 25.8429 -14.5271 2.457
27 2 25.5683 62.8186 -0.381309 25.5683 -12.8791 -0.381309
28 1 26.6541 63.4458 1.86127 26.6541 -12.2518 1.86127
29 2 28.3932 62.6454 3.31222 28.3932 -13.0522 3.31222
30 2 28.5411 -11.3328 0.571803 28.5411 -11.3328 0.571803
31 1 29.546 62.0288 1.10376 29.546 -13.6689 1.10376
32 2 31.7244 61.368 2.21684 31.7244 -14.3296 2.21684
33 2 31.1698 63.0658 -0.408686 31.1698 -12.6319 -0.408686
34 1 32.3867 -11.9523 1.64513 32.3867 -11.9523 1.64513
35 2 34.3729 63.0035 2.89011 34.3729 -12.6941 2.89011
36 2 34.0879 -10.907 0.146273 34.0879 -10.907 0.146273
37 1 35.2677 62.5987 0.557793 35.2677 -13.099 0.557793
38 2 37.3751 61.7639 1.73015 37.3751 -13.9338 1.73015
39 2 37.0664 -12.1291 -0.974104 37.0664 -12.1291 -0.974104
40 1 38.1034 -11.6698 1.26354 38.1034 -11.6698 1.26354
41 2 39.9783 63.0017 2.63238 39.9783 -12.696 2.63238
42 2 40.1965 -10.5339 0.185657 40.1965 -10.5339 0.185657
43 1 40.9737 62.7401 0.367706 40.9737 -12.9576 0.367706
44 2 42.8007 61.5671 1.61785 42.8007 -14.1306 1.61785
45 2 42.9308 -11.9771 -0.793621 42.9308 -11.9771 -0.793621
46 1 43.8078 -11.85 1.62809 43.8078 -11.85 1.62809
47 2 45.7828 62.7099 2.84527 45.7828 -12.9878 2.84527
48 2 45.7323 -10.6676 0.560796 45.7323 -10.6676 0.560796
49 1 46.7769 62.6125 0.548188 46.7769 -13.0852 0.548188
50 2 48.3928 61.4058 2.04886 48.3928 -14.2918 2.04886
51 2 48.9711 -12.1773 -0.474941 48.9711 -12.1773 -0.474941
52 1 49.7095 -12.061 1.91498 49.7095 -12.061 1.91498
53 2 51.3712 62.4107 3.28489 51.3712 -13.287 3.28489
54 2 51.794 -11.3722 0.712931 51.794 -11.3722 0.712931
55 1 1.13027 -11.1534 3.15463 1.13027 -11.1534 3.15463
56 2 3.06434 -12.303 4.46106 3.06434 -12.303 4.46106
57 2 3.10396 -10.2976 1.98771 3.10396 -10.2976 1.98771
58 1 3.88611 -9.95817 4.36301 3.88611 -9.95817 4.36301
59 2 5.61695 -10.9812 5.80463 5.61695 -10.9812 5.80463
60 2 5.91449 -9.25584 3.16145 5.91449 -9.25584 3.16145
61 1 6.7838 -11.5618 3.70827 6.7838 -11.5618 3.70827
62 2 8.66122 63.0243 5.0072 8.66122 -12.6733 5.0072
63 2 8.71253 -10.5403 2.4123 8.71253 -10.5403 2.4123
64 1 9.613 -10.3205 4.74692 9.613 -10.3205 4.74692
65 2 11.3766 -11.3625 6.20507 11.3766 -11.3625 6.20507
66 2 11.6935 -9.38204 3.60386 11.6935 -9.38204 3.60386
67 1 12.5111 -11.7294 3.96389 12.5111 -11.7294 3.96389
68 2 14.4556 62.9232 5.15622 14.4556 -12.7745 5.15622
69 2 14.3426 -10.6403 2.58918 14.3426 -10.6403 2.58918
70 1 15.2753 -10.3629 5.01222 15.2753 -10.3629 5.01222
71 2 17.2594 -11.133 6.20752 17.2594 -11.133 6.20752
72 2 17.0779 -9.53211 3.48809 17.0779 -9.53211 3.48809
73 1 18.1578 -11.7339 3.91948 18.1578 -11.7339 3.91948
74 2 20.3122 63.3721 4.91139 20.3122 -12.3256 4.91139
75 2 19.7869 -10.5583 2.21985 19.7869 -10.5583 2.21985
76 1 20.9659 -9.99821 4.26505 20.9659 -9.99821 4.26505
77 2 22.9522 -10.9283 5.44666 22.9522 -10.9283 5.44666
78 2 22.6853 -8.88047 2.94413 22.6853 -8.88047 2.94413
79 1 23.7751 -11.1475 3.06534 23.7751 -11.1475 3.06534
80 2 25.8347 -11.9753 4.17727 25.8347 -11.9753 4.17727
81 2 25.5271 -10.04 1.67809 25.5271 -10.04 1.67809
82 1 26.6098 -9.63672 3.89567 26.6098 -9.63672 3.89567
83 2 28.6247 -10.3858 5.12404 28.6247 -10.3858 5.12404
84 2 28.2792 -8.59596 2.45951 28.2792 -8.59596 2.45951
85 1 29.4442 -10.8286 2.8968 29.4442 -10.8286 2.8968
86 2 31.6177 -11.5668 4.03821 31.6177 -11.5668 4.03821
87 2 31.1179 -9.76608 1.34542 31.1179 -9.76608 1.34542
88 1 32.2957 -9.20245 3.41433 32.2957 -9.20245 3.41433
89 2 34.2085 -10.187 4.74998 34.2085 -10.187 4.74998
90 2 34.1989 -7.99591 2.18054 34.1989 -7.99591 2.18054
91 1 35.1767 -10.4209 2.37327 35.1767 -10.4209 2.37327
92 2 37.0471 -11.4236 3.54437 37.0471 -11.4236 3.54437
93 2 36.9367 -9.22504 1.10818 36.9367 -9.22504 1.10818
94 1 38.0588 -9.09327 3.33561 38.0588 -9.09327 3.33561
95 2 39.9461 -10.1835 4.79037 39.9461 -10.1835 4.79037
96 2 40.0509 -8.0803 2.25106 40.0509 -8.0803 2.25106
97 1 40.9641 -10.3665 2.52203 40.9641 -10.3665 2.52203
98 2 42.62 -11.6495 3.84493 42.62 -11.6495 3.84493
99 2 43.115 -9.51901 1.42647 43.115 -9.51901 1.42647
100 1 43.7665 -9.37836 3.84887 43.7665 -9.37836 3.84887
101 2 45.654 -10.5291 5.13386 45.654 -10.5291 5.13386
102 2 45.7204 -8.46319 2.64063 45.7204 -8.46319 2.64063
103 1 46.7046 -10.6923 2.85132 46.7046 -10.6923 2.85132
104 2 48.486 -11.7997 4.1969 48.486 -11.7997 4.1969
105 2 48.7366 -9.81295 1.61905 48.7366 -9.81295 1.61905
106 1 49.5619 -9.55585 3.98714 49.5619 -9.55585 3.98714
107 2 51.3577 -10.7565 5.31236 51.3577 -10.7565 5.31236
108 2 51.7131 -8.80398 2.82431 51.7131 -8.80398 2.82431
109 1 0.99273 -8.51434 5.16737 0.99273 -8.51434 5.16737
110 2 2.83732 -9.52362 6.56991 2.83732 -9.52362 6.56991
111 2 3.02747 -7.59079 3.96453 3.02747 -7.59079 3.96453
112 1 3.89842 -7.28381 6.28284 3.89842 -7.28381 6.28284
113 2 5.63545 -8.34039 7.77046 5.63545 -8.34039 7.77046
114 2 5.96361 -6.3796 5.18746 5.96361 -6.3796 5.18746
115 1 6.76705 -8.8181 5.48046 6.76705 -8.8181 5.48046
116 2 8.49453 -9.96417 6.95959 8.49453 -9.96417 6.95959
117 2 8.78529 -7.9797 4.37203 8.78529 -7.9797 4.37203
118 1 9.55578 -7.59428 6.79308 9.55578 -7.59428 6.79308
119 2 11.3755 -8.71713 8.22142 11.3755 -8.71713 8.22142
120 2 11.5722 -6.76299 5.68281 11.5722 -6.76299 5.68281
121 1 12.3928 -9.06958 6.03036 12.3928 -9.06958 6.03036
122 2 14.3249 -10.0492 7.33401 14.3249 -10.0492 7.33401
123 2 14.26 -8.09081 4.65129 14.26 -8.09081 4.65129
124 1 15.3322 -7.8046 6.93171 15.3322 -7.8046 6.93171
125 2 17.3945 -8.58326 8.07492 17.3945 -8.58326 8.07492
126 2 16.9882 -6.64661 5.42655 16.9882 -6.64661 5.42655
127 1 18.168 -8.89641 5.64622 18.168 -8.89641 5.64622
128 2 20.2669 -9.70558 6.69974 20.2669 -9.70558 6.69974
129 2 19.7728 -7.75973 4.08268 19.7728 -7.75973 4.08268
130 1 21.0615 -7.28736 6.22061 21.0615 -7.28736 6.22061
131 2 23.2328 -8.06291 7.51529 23.2328 -8.06291 7.51529
132 2 22.6788 -6.33588 4.65127 22.6788 -6.33588 4.65127
133 1 23.7679 -8.6155 5.14462 23.7679 -8.6155 5.14462
134 2 25.8379 -9.31645 6.2758 25.8379 -9.31645 6.2758
135 2 25.4267 -7.46578 3.602 25.4267 -7.46578 3.602
136 1 26.5797 -6.98319 5.74816 26.5797 -6.98319 5.74816
137 2 28.5531 -7.91127 6.97959 28.5531 -7.91127 6.97959
138 2 28.2611 -5.81539 4.4835 28.2611 -5.81539 4.4835
139 1 29.4613 -8.0752 4.62347 29.4613 -8.0752 4.62347
140 2 31.3686 -9.05439 5.76157 31.3686 -9.05439 5.76157
141 2 31.1792 -6.88971 3.33499 31.1792 -6.88971 3.33499
142 1 32.2962 -6.68762 5.53714 32.2962 -6.68762 5.53714
143 2 34.1739 -7.78712 6.73317 34.1739 -7.78712 6.73317
144 2 34.1439 -5.62911 4.28064 34.1439 -5.62911 4.28064
145 1 35.2448 -7.91818 4.44888 35.2448 -7.91818 4.44888
146 2 37.0769 -8.98755 5.62565 37.0769 -8.98755 5.62565
147 2 37.1619 -6.82868 3.39258 37.1619 -6.82868 3.39258
148 1 38.1102 -6.70996 5.68382 38.1102 -6.70996 5.68382
149 2 39.8235 -7.79879 7.04251 39.8235 -7.79879 7.04251
150 2 39.9892 -5.66385 4.46392 39.9892 -5.66385 4.46392
151 1 40.9271 -7.97313 4.65847 40.9271 -7.97313 4.65847
152 2 42.7805 -8.90356 6.03811 42.7805 -8.90356 6.03811
153 2 42.9145 -7.06363 3.27934 42.9145 -7.06363 3.27934
154 1 43.8447 -6.64052 5.71929 43.8447 -6.64052 5.71929
155 2 45.5394 -7.77931 7.12932 45.5394 -7.77931 7.12932
156 2 45.8862 -5.77682 4.48399 45.8862 -5.77682 4.48399
157 1 46.6378 -8.24111 4.95119 46.6378 -8.24111 4.95119
158 2 48.5633 -9.2028 6.28852 48.5633 -9.2028 6.28852
159 2 48.6225 -7.31703 3.64433 48.6225 -7.31703 3.64433
160 1 49.5251 -6.90409 5.91774 49.5251 -6.90409 5.91774
161 2 51.3862 -7.89609 7.4416 51.3862 -7.89609 7.4416
162 2 51.4607 -6.19483 4.65342 51.4607 -6.19483 4.65342
163 1 0.994977 -5.7271 6.9868 0.994977 -5.7271 6.9868
164 2 2.71863 -6.9538 8.41751 2.71863 -6.9538 8.41751
165 2 3.1451 -4.90132 6.06849 3.1451 -4.90132 6.06849
166 1 3.91199 -4.79424 8.43937 3.91199 -4.79424 8.43937
167 2 5.79083 -5.93087 -10.1648 5.79083 -5.93087 9.83518
168 2 6.00304 -3.88489 7.28824 6.00304 -3.88489 7.28824
169 1 6.80335 -6.19158 7.57801 6.80335 -6.19158 7.57801
170 2 8.51149 -7.28593 9.11198 8.51149 -7.28593 9.11198
171 2 8.84558 -5.23949 6.58887 8.84558 -5.23949 6.58887
172 1 9.5393 -5.07271 8.8943 9.5393 -5.07271 8.8943
173 2 11.4124 -6.29888 -9.80368 11.4124 -6.29888 10.1963
174 2 11.536 -4.08926 7.67407 11.536 -4.08926 7.67407
175 1 12.4056 -6.46109 7.93755 12.4056 -6.46109 7.93755
176 2 14.3654 -7.49945 9.27406 14.3654 -7.49945 9.27406
177 2 14.3323 -5.45233 6.70778 14.3323 -5.45233 6.70778
178 1 15.2736 -5.21867 8.99795 15.2736 -5.21867 8.99795
179 2 17.491 -5.96324 10.0814 17.491 -5.96324 10.0814
180 2 17.009 -4.10544 7.48975 17.009 -4.10544 7.48975
181 1 18.1718 -6.29684 7.65699 18.1718 -6.29684 7.65699
182 2 20.3235 -7.17356 8.63007 20.3235 -7.17356 8.63007
183 2 19.8404 -5.06871 6.23175 19.8404 -5.06871 6.23175
184 1 21.0444 -4.75272 8.39501 21.0444 -4.75272 8.39501
185 2 23.2476 -5.56037 9.38632 23.2476 -5.56037 9.38632
186 2 22.6047 -3.52307 6.86097 22.6047 -3.52307 6.86097
187 1 23.8414 -5.71428 6.88191 23.8414 -5.71428 6.88191
188 2 25.8331 -6.69547 8.0459 25.8331 -6.69547 8.0459
189 2 25.5054 -4.67337 5.45444 25.5054 -4.67337 5.45444
190 1 26.5946 -4.29809 7.78374 26.5946 -4.29809 7.78374
191 2 28.6218 -5.25856 9.01107 28.6218 -5.25856 9.01107
192 2 28.4596 -3.27779 6.37759 28.4596 -3.27779 6.37759
193 1 29.3834 -5.60434 6.67271 29.3834 -5.60434 6.67271
194 2 31.3946 -6.4991 7.90128 31.3946 -6.4991 7.90128
195 2 31.2189 -4.4422 5.28155 31.2189 -4.4422 5.28155
196 1 32.2916 -4.12646 7.50242 32.2916 -4.12646 7.50242
197 2 34.0857 -4.87156 8.8539 34.0857 -4.87156 8.8539
198 2 34.1577 -3.19844 6.09717 34.1577 -3.19844 6.09717
199 1 35.1613 -5.45199 6.56485 35.1613 -5.45199 6.56485
200 2 36.9814 -6.33575 7.93304 36.9814 -6.33575 7.93304
201 2 37.1186 -4.43474 5.26065 37.1186 -4.43474 5.26065
202 1 38.0211 -4.04577 7.6271 38.0211 -4.04577 7.6271
203 2 39.9503 -5.04352 9.10672 39.9503 -5.04352 9.10672
204 2 40.0393 -3.13124 6.35042 40.0393 -3.13124 6.35042
205 1 40.914 -5.49278 6.81685 40.914 -5.49278 6.81685
206 2 42.8802 -6.44625 8.05218 42.8802 -6.44625 8.05218
207 2 42.8457 -4.36742 5.53457 42.8457 -4.36742 5.53457
208 1 43.8751 -4.1803 7.85978 43.8751 -4.1803 7.85978
209 2 45.8571 -5.01974 9.33294 45.8571 -5.01974 9.33294
210 2 45.6934 -3.35888 6.34685 45.6934 -3.35888 6.34685
211 1 46.7062 -5.61276 6.84798 46.7062 -5.61276 6.84798
212 2 48.4343 -6.5507 8.26422 48.4343 -6.5507 8.26422
213 2 48.6054 -4.49968 5.73005 48.6054 -4.49968 5.73005
214 1 49.608 -4.37348 7.98884 49.608 -4.37348 7.98884
215 2 51.4666 -5.46892 9.26868 51.4666 -5.46892 9.26868
216 2 51.5177 -3.33573 6.70462 51.5177 -3.33573 6.70462
217 1 1.10413 -3.18806 9.06141 1.10413 -3.18806 9.06141
218 2 2.72197 -4.30178 -9.39491 2.72197 -4.30178 10.6051
219 2 3.17241 -2.46939 7.8675 3.17241 -2.46939 7.8675
220 1 3.85671 -2.04216 -9.67151 3.85671 -2.04216 10.3285
221 2 5.52055 -3.15785 -8.07657 5.52055 -3.15785 11.9234
222 2 6.05206 -1.31112 9.23692 6.05206 -1.31112 9.23692
223 1 6.6822 -3.58439 9.76334 6.6822 -3.58439 9.76334
224 2 8.36892 -4.72156 -8.93531 8.36892 -4.72156 11.0647
225 2 8.72231 -2.76896 8.47801 8.72231 -2.76896 8.47801
226 1 9.61144 -2.50502 -9.12947 9.61144 -2.50502 10.8705
227 2 11.4773 -3.33087 -7.73151 11.4773 -3.33087 12.2685
228 2 11.439 -1.72781 9.43987 11.439 -1.72781 9.43987
229 1 12.491 -3.93279 10.0506 12.491 -3.93279 10.0506
230 2 14.4196 -4.81279 -8.60884 14.4196 -4.81279 11.3912
231 2 14.3303 -2.89114 8.59239 14.3303 -2.89114 8.59239
232 1 15.411 -2.37286 -9.19567 15.411 -2.37286 10.8043
233 2 17.3955 -3.29223 -7.94785 17.3955 -3.29223 12.0522
234 2 17.189 -1.38565 9.40169 17.189 -1.38565 9.40169
235 1 18.1621 -3.62708 9.67272 18.1621 -3.62708 9.67272
236 2 20.3373 -4.5899 -9.26895 20.3373 -4.5899 10.7311
237 2 19.8132 -2.50412 8.16071 19.8132 -2.50412 8.16071
238 1 21.0395 -2.0475 -9.64618 21.0395 -2.0475 10.3538
239 2 23.2391 -2.68393 -8.53405 23.2391 -2.68393 11.4659
240 2 22.5808 -0.988121 8.78896 22.5808 -0.988121 8.78896
241 1 23.8178 -3.07178 9.01509 23.8178 -3.07178 9.01509
242 2 25.9155 -4.01038 -9.89553 25.9155 -4.01038 10.1045
243 2 25.5513 -1.92937 7.52067 25.5513 -1.92937 7.52067
244 1 26.6549 -1.65794 9.785 26.6549 -1.65794 9.785
245 2 28.7727 -2.66848 -9.1365 28.7727 -2.66848 10.8635
246 2 28.5019 -0.641968 8.49161 28.5019 -0.641968 8.49161
247 1 29.4805 -2.9061 8.54649 29.4805 -2.9061 8.54649
248 2 31.5666 -3.5731 9.79482 31.5666 -3.5731 9.79482
249 2 31.1158 -1.87212 7.03949 31.1158 -1.87212 7.03949
250 1 32.3888 -1.27891 9.22282 32.3888 -1.27891 9.22282
251 2 34.1399 -2.16843 -9.36413 34.1399 -2.16843 10.6359
252 2 34.1656 -0.386769 7.8819 34.1656 -0.386769 7.8819
253 1 35.0986 -2.64749 8.32351 35.0986 -2.64749 8.32351
254 2 36.9304 -3.4922 -10.1246 36.9304 -3.4922 9.87544
255 2 37.1148 -1.83073 7.11551 37.1148 -1.83073 7.11551
256 1 37.9711 -1.31722 9.35327 37.9711 -1.31722 9.35327
257 2 39.6571 -2.52338 -9.22613 39.6571 -2.52338 10.7739
258 2 41.5009 -0.504874 9.94901 41.5009 -0.504874 9.94901
259 1 41.0372 -2.6652 8.69584 41.0372 -2.6652 8.69584
260 2 42.7655 -3.77891 -9.9722 42.7655 -3.77891 10.0278
261 2 43.282 -1.81435 7.59703 43.282 -1.81435 7.59703
262 1 43.8932 -1.47098 9.99218 43.8932 -1.47098 9.99218
263 2 46.0872 -2.45618 -9.10292 46.0872 -2.45618 10.8971
264 2 45.7382 -0.320917 8.56949 45.7382 -0.320917 8.56949
265 1 46.7443 -2.64109 8.62089 46.7443 -2.64109 8.62089
266 2 48.5427 -3.64618 -9.85037 48.5427 -3.64618 10.1496
267 2 48.8548 -2.02745 7.33444 48.8548 -2.02745 7.33444
268 1 49.7178 -1.51356 9.58921 49.7178 -1.51356 9.58921
269 2 51.352 -2.57456 -8.85165 51.352 -2.57456 11.1483
270 2 51.7194 -0.839079 8.40936 51.7194 -0.839079 8.40936
271 1 1.08543 -0.363714 -9.25926 1.08543 -0.363714 10.7407
272 2 2.66281 -1.3239 -7.5146 2.66281 -1.3239 12.4854
273 2 3.2488 0.304983 9.70179 3.2488 0.304983 9.70179
274 1 3.92912 0.831677 -8.02962 3.92912 0.831677 11.9704
275 2 5.54981 -0.148044 -6.34838 5.54981 -0.148044 13.6516
276 2 6.01282 1.27134 -9.21175 6.01282 1.27134 10.7882
277 1 6.70053 -0.968409 -8.38273 6.70053 -0.968409 11.6173
278 2 8.53743 -1.84942 -6.909 8.53743 -1.84942 13.091
279 2 8.65251 -0.25619 -9.74477 8.65251 -0.25619 10.2552
280 1 9.51403 0.38374 -7.54882 9.51403 0.38374 12.4512
281 2 11.4159 -0.381784 -6.16516 11.4159 -0.381784 13.8348
282 2 11.4 1.00709 -9.04825 11.4 1.00709 10.9518
283 1 12.4056 -1.09618 -8.34653 12.4056 -1.09618 11.6535
284 2 14.4906 -1.87194 -6.99286 14.4906 -1.87194 13.0071
285 2 14.3588 -0.182299 -9.72235 14.3588 -0.182299 10.2776
286 1 15.3947 0.334349 -7.52382 15.3947 0.334349 12.4762
287 2 17.2168 -0.765256 -6.12421 17.2168 -0.765256 13.8758
288 2 17.3584 1.37681 -8.56507 17.3584 1.37681 11.4349
289 1 18.3052 -0.999174 -8.36271 18.3052 -0.999174 11.6373
290 2 20.4038 -1.57682 -7.23928 20.4038 -1.57682 12.7607
291 2 19.7641 0.197457 10.0516 19.7641 0.197457 10.0516
292 1 20.9316 0.813962 -7.91412 20.9316 0.813962 12.0859
293 2 22.9894 0.117096 -6.81125 22.9894 0.117096 13.1887
294 2 22.5502 1.76697 -9.61273 22.5502 1.76697 10.3873
295 1 23.8258 -0.360009 -9.27116 23.8258 -0.360009 10.7288
296 2 25.8355 -1.26953 -7.93322 25.8355 -1.26953 12.0668
297 2 25.6554 0.693416 9.3734 25.6554 0.693416 9.3734
298 1 26.6755 0.975629 -8.3556 26.6755 0.975629 11.6444
299 2 28.6907 0.239852 -7.03225 28.6907 0.239852 12.9678
300 2 28.4072 1.92852 -9.93798 28.4072 1.92852 10.062
301 1 29.5627 -0.354403 -9.30065 29.5627 -0.354403 10.6994
302 2 31.8186 -0.867892 -8.28875 31.8186 -0.867892 11.7112
303 2 31.0541 0.961865 9.11318 31.0541 0.961865 9.11318
304 1 32.316 1.48659 -8.8338 32.316 1.48659 11.1662
305 2 34.6741 1.44371 -7.93786 34.6741 1.44371 12.0621
306 2 33.748 2.04303 9.20634 33.748 2.04303 9.20634
307 1 35.0955 0.0330452 -9.85999 35.0955 0.0330452 10.14
308 2 36.8037 -1.11105 -8.49936 36.8037 -1.11105 11.5006
309 2 37.1937 1.09771 9.52403 37.1937 1.09771 9.52403
310 1 38.5667 35.1136 5.42643 38.5667 35.1136 -14.5736
311 2 39.538 32.906 4.8142 39.538 32.906 -15.1858
312 2 40.6756 36.1582 4.84675 40.6756 36.1582 -15.1533
313 1 41.674 33.9975 4.43467 41.674 33.9975 -15.5653
314 2 41.5709 33.3376 6.81867 41.5709 33.3376 -13.1813
315 2 43.4219 32.2195 4.90954 43.4219 32.2195 -15.0905
316 1 44.1392 33.823 6.73336 44.1392 33.823 -13.2666
317 2 46.1644 32.5671 7.60618 46.1644 32.5671 -12.3938
318 2 46.0573 34.1365 5.10311 46.0573 34.1365 -14.8969
319 1 46.8395 -0.145499 -9.26345 46.8395 -0.145499 10.7365
320 2 48.8745 -1.14321 -7.99276 48.8745 -1.14321 12.0072
321 2 48.7031 0.766681 9.23749 48.7031 0.766681 9.23749
322 1 49.6199 1.22486 -8.3749 49.6199 1.22486 11.6251
323 2 51.5871 0.351493 -7.07505 51.5871 0.351493 12.9249
324 2 51.5583 1.79988 -9.85915 51.5583 1.79988 10.1408
325 1 1.10483 2.70122 -7.69812 1.10483 2.70122 12.3019
326 2 2.81767 1.88549 -6.05858 2.81767 1.88549 13.9414
327 2 3.25592 2.8643 -9.06068 3.25592 2.8643 10.9393
328 1 4.00608 3.95704 -7.02351 4.00608 3.95704 12.9765
329 2 5.53481 3.14705 -5.23233 5.53481 3.14705 14.7677
330 2 6.42576 4.23354 -8.15294 6.42576 4.23354 11.8471
331 1 6.7322 2.06367 -6.97782 6.7322 2.06367 13.0222
332 2 8.26647 0.930977 -5.44659 8.26647 0.930977 14.5534
333 2 8.82149 2.7053 -8.09415 8.82149 2.7053 11.9059
334 1 9.58559 3.20245 -5.67968 9.58559 3.20245 14.3203
335 2 11.832 2.22403 -4.61804 11.832 2.22403 15.382
336 2 11.3798 4.02999 -7.38233 11.3798 4.02999 12.6177
337 1 12.3622 1.82849 -6.88773 12.3622 1.82849 13.1123
338 2 14.2833 0.951114 -5.40186 14.2833 0.951114 14.5981
339 2 14.5277 2.57006 -8.23295 14.5277 2.57006 11.767
340 1 15.1134 3.28448 -5.90542 15.1134 3.28448 14.0946
341 2 16.4883 2.38954 -4.1226 16.4883 2.38954 15.8774
342 2 17.3518 3.97859 -6.78153 17.3518 3.97859 13.2185
343 1 18.1121 1.57488 -6.10725 18.1121 1.57488 13.8927
344 2 20.4733 0.770448 -5.39799 20.4733 0.770448 14.602
345 2 19.6079 2.88272 -7.71672 19.6079 2.88272 12.2833
346 1 20.8587 3.2434 -5.57237 20.8587 3.2434 14.4276
347 2 23.14 2.54934 -5.01387 23.14 2.54934 14.9861
348 2 22.0921 4.62302 -7.1934 22.0921 4.62302 12.8066
349 1 23.7029 2.63191 -7.48554 23.7029 2.63191 12.5145
350 2 25.6331 1.5261 -6.10275 25.6331 1.5261 13.8972
351 2 25.7452 3.24147 -8.86632 25.7452 3.24147 11.1337
352 1 26.563 3.85471 -6.37737 26.563 3.85471 13.6226
353 2 28.6772 3.10073 -5.42224 28.6772 3.10073 14.5778
354 2 28.0773 4.75762 -8.10318 28.0773 4.75762 11.8968
355 1 29.294 2.55502 -7.77795 29.294 2.55502 12.222
356 2 31.6204 2.42077 -6.62476 31.6204 2.42077 13.3752
357 2 31.1081 3.71468 -9.02489 31.1081 3.71468 10.9751
358 1 33.1241 37.678 7.82333 33.1241 37.678 -12.1767
359 2 36.465 36.4773 8.87342 36.465 36.4773 -11.1266
360 2 35.0246 38.6863 6.65975 35.0246 38.6863 -13.3402
361 1 35.729 36.4015 6.54082 35.729 36.4015 -13.4592
362 2 39.2072 34.8377 7.82198 39.2072 34.8377 -12.178
363 2 37.7417 37.4739 5.72035 37.7417 37.4739 -14.2797
364 1 38.6984 37.3279 8.10316 38.6984 37.3279 -11.8968
365 2 40.7617 36.383 9.49617 40.7617 36.383 -10.5038
366 2 40.6605 38.1367 6.62562 40.6605 38.1367 -13.3744
367 1 41.4397 35.7905 7.19932 41.4397 35.7905 -12.8007
368 2 43.2443 34.8409 8.71944 43.2443 34.8409 -11.2806
369 2 43.4012 35.8104 5.50371 43.4012 35.8104 -14.4963
370 1 44.5067 36.8052 7.68359 44.5067 36.8052 -12.3164
371 2 46.2312 35.9255 9.22658 46.2312 35.9255 -10.7734
372 2 46.5145 37.0439 6.232 46.5145 37.0439 -13.768
373 1 47.1601 34.7816 7.28739 47.1601 34.7816 -12.7126
374 2 49.1706 34.2486 8.52116 49.1706 34.2486 -11.4788
375 2 49.3138 38.5801 6.75399 49.3138 38.5801 -13.246
376 1 50.0619 36.221 7.30391 50.0619 36.221 -12.6961
377 2 48.9706 34.6199 5.65996 48.9706 34.6199 -14.34
378 2 52.0125 36.8513 5.80337 52.0125 36.8513 -14.1966
379 1 50.7345 38.953 8.83177 -0.676223 38.953 -11.1682
380 2 1.00612 39.0766 -9.17533 1.00612 39.0766 -9.17533
381 2 1.43451 39.4153 7.34183 1.43451 39.4153 -12.6582
382 1 2.68037 40.2372 9.47717 2.68037 40.2372 -10.5228
383 2 4.71364 39.5624 -9.27 4.71364 39.5624 -9.27
384 2 3.46428 38.0354 8.64832 3.46428 38.0354 -11.3517
385 1 6.82945 5.18988 -5.93878 6.82945 5.18988 14.0612
386 2 7.97703 4.21438 -4.06199 7.97703 4.21438 15.938
387 2 9.21208 5.49785 -6.67347 9.21208 5.49785 13.3265
388 1 9.49425 6.3569 -4.42381 9.49425 6.3569 15.5762
389 2 10.5762 4.36671 -3.45558 10.5762 4.36671 16.5444
390 2 11.6778 7.11154 -5.47623 11.6778 7.11154 14.5238
391 1 12.4252 4.6926 -5.08854 12.4252 4.6926 14.9115
392 2 15.0203 5.06245 -4.15589 15.0203 5.06245 15.8441
393 2 13.9909 5.19367 -6.85747 13.9909 5.19367 13.1425
394 1 15.0429 40.0223 9.01129 15.0429 40.0223 -10.9887
395 2 17.0662 39.43 -9.40995 17.0662 39.43 -9.40995
396 2 16.2834 41.8923 8.09472 16.2834 41.8923 -11.9053
397 1 17.7075 4.49884 -4.40157 17.7075 4.49884 15.5984
398 2 19.1881 2.4949 -3.81427 19.1881 2.4949 16.1857
399 2 21.4857 4.58796 -3.58721 21.4857 4.58796 16.4128
400 1 21.0258 39.8062 9.71579 21.0258 39.8062 -10.2842
401 2 22.1846 40.3781 -8.16555 22.1846 40.3781 -8.16555
402 2 23.3376 40.4202 8.65711 23.3376 40.4202 -11.3429
403 1 23.6296 4.94374 -5.05781 23.6296 4.94374 14.9422
404 2 25.7211 3.80886 -4.13742 25.7211 3.80886 15.8626
405 2 24.7076 5.17583 -7.31342 24.7076 5.17583 12.6866
406 1 27.2631 39.9432 9.41722 27.2631 39.9432 -10.5828
407 2 30.8672 39.2118 -9.19445 30.8672 39.2118 -9.19445
408 2 29.2575 41.0272 8.33602 29.2575 41.0272 -11.664
409 1 30.197 38.8017 8.57604 30.197 38.8017 -11.424
410 2 34.0692 37.9055 10.0658 34.0692 37.9055 -9.93415
411 2 32.2954 39.9046 7.62152 32.2954 39.9046 -12.3785
412 1 33.1695 40.2516 9.95027 33.1695 40.2516 -10.0497
413 2 35.4916 39.8281 -8.60216 35.4916 39.8281 -8.60216
414 2 34.9167 41.0232 8.27121 34.9167 41.0232 -11.7288
415 1 36.0908 38.907 9.02353 36.0908 38.907 -10.9765
416 2 38.0709 38.2227 -9.62865 38.0709 38.2227 -9.62865
417 2 37.8151 39.7195 7.41441 37.8151 39.7195 -12.5856
418 1 39.1058 40.3566 9.51408 39.1058 40.3566 -10.4859
419 2 41.0559 39.2532 -9.10996 41.0559 39.2532 -9.10996
420 2 41.0687 40.8181 8.04293 41.0687 40.8181 -11.9571
421 1 41.7939 38.5037 8.75812 41.7939 38.5037 -11.2419
422 2 43.88 37.675 -9.99886 43.88 37.675 -9.99886
423 2 43.661 39.1138 7.12556 43.661 39.1138 -12.8744
424 1 44.9706 39.8109 9.2019 44.9706 39.8109 -10.7981
425 2 46.7513 38.7758 -9.3821 46.7513 38.7758 -9.3821
426 2 46.9675 40.2735 7.70808 46.9675 40.2735 -12.2919
427 1 47.5329 37.9941 8.34924 47.5329 37.9941 -11.6508
428 2 49.3514 37.0379 9.64676 49.3514 37.0379 -10.3532
429 2 52.0897 36.8944 8.56808 52.0897 36.8944 -11.4319
430 1 48.166 40.8092 9.8787 48.166 40.8092 -10.1213
431 2 49.8354 39.5245 -8.82211 49.8354 39.5245 -8.82211
432 2 50.2031 41.3424 8.51676 50.2031 41.3424 -11.4832
433 1 51.3706 41.6039 -9.24752 -0.0401628 41.6039 -9.24752
434 2 2.35612 41.153 -8.2205 2.35612 41.153 -8.2205
435 2 1.60513 42.431 8.85317 1.60513 42.431 -11.1468
436 1 3.08272 43.2091 -9.37881 3.08272 43.2091 -9.37881
437 2 5.12434 42.4323 -7.95141 5.12434 42.4323 -7.95141
438 2 5.02481 43.8903 9.17401 5.02481 43.8903 -10.826
439 1 5.92467 41.6515 -10.0789 5.92467 41.6515 -10.0789
440 2 7.8635 40.9355 -8.60192 7.8635 40.9355 -8.60192
441 2 9.9442 40.8702 9.12935 9.9442 40.8702 -10.8707
442 1 9.13449 43.0106 -9.41847 9.13449 43.0106 -9.41847
443 2 10.8817 42.4925 -7.82075 10.8817 42.4925 -7.82075
444 2 11.3037 43.5527 9.2617 11.3037 43.5527 -10.7383
445 1 12.1348 41.3531 -9.77153 12.1348 41.3531 -9.77153
446 2 14.4782 41.0474 -8.67748 14.4782 41.0474 -8.67748
447 2 13.5321 42.1637 8.43479 13.5321 42.1637 -11.5652
448 1 15.2354 43.1516 -9.75347 15.2354 43.1516 -9.75347
449 2 16.9612 42.2581 -8.09898 16.9612 42.2581 -8.09898
450 2 17.4175 44.1244 9.26914 17.4175 44.1244 -10.7309
451 1 18.1968 41.6275 9.68415 18.1968 41.6275 -10.3159
452 2 19.4913 40.6857 -8.45838 19.4913 40.6857 -8.45838
453 2 20.6511 42.0843 8.91693 20.6511 42.0843 -11.0831
454 1 21.1413 42.6396 -8.70809 21.1413 42.6396 -8.70809
455 2 23.1642 42.5969 -7.07497 23.1642 42.5969 -7.07497
456 2 23.0689 43.1885 9.76414 23.0689 43.1885 -10.2359
457 1 24.181 41.3122 -9.2129 24.181 41.3122 -9.2129
458 2 28.0188 40.574 -8.32285 28.0188 40.574 -8.32285
459 2 26.1412 42.1397 9.16867 26.1412 42.1397 -10.8313
460 1 27.1704 42.9227 -8.69666 27.1704 42.9227 -8.69666
461 2 29.1065 42.6464 -7.12069 29.1065 42.6464 -7.12069
462 2 28.8883 43.7072 9.71805 28.8883 43.7072 -10.282
463 1 30.1057 41.6381 -9.38466 30.1057 41.6381 -9.38466
464 2 32.4125 41.2288 -7.91713 32.4125 41.2288 -7.91713
465 2 32.0097 42.3295 8.99133 32.0097 42.3295 -11.0087
466 1 33.0623 43.3476 -8.98413 33.0623 43.3476 -8.98413
467 2 35.0724 42.9361 -7.60368 35.0724 42.9361 -7.60368
468 2 34.7748 44.0498 9.30955 34.7748 44.0498 -10.6905
469 1 36.2125 42.0081 -9.7315 36.2125 42.0081 -9.7315
470 2 38.2227 41.4174 -8.27719 38.2227 41.4174 -8.27719
471 2 38.0764 42.5736 8.67077 38.0764 42.5736 -11.3292
472 1 39.4314 43.6308 -9.18852 39.4314 43.6308 -9.18852
473 2 41.4402 42.4625 -7.64941 41.4402 42.4625 -7.64941
474 2 41.3746 43.5567 9.16373 41.3746 43.5567 -10.8363
475 1 42.2647 41.3544 -9.74992 42.2647 41.3544 -9.74992
476 2 44.0352 40.1024 -8.48553 44.0352 40.1024 -8.48553
477 2 44.2043 42.5166 9.1495 44.2043 42.5166 -10.8505
478 1 41.2656 46.2735 9.38555 41.2656 46.2735 -10.6145
479 2 44.6971 43.7748 -7.14891 44.6971 43.7748 -7.14891
480 2 43.8234 45.6019 9.45484 43.8234 45.6019 -10.5452
481 1 45.4289 42.1117 -8.74998 45.4289 42.1117 -8.74998
482 2 47.6382 41.3107 -7.74431 47.6382 41.3107 -7.74431
483 2 46.986 43.1785 9.56314 46.986 43.1785 -10.4369
484 1 48.7055 43.4987 -8.54889 48.7055 43.4987 -8.54889
485 2 50.5687 42.6768 -7.0808 50.5687 42.6768 -7.0808
486 2 50.6367 43.8756 9.92049 50.6367 43.8756 -10.0795
487 1 51.7299 44.7913 -8.03351 0.319154 44.7913 -8.03351
488 2 2.61674 43.9798 -7.09903 2.61674 43.9798 -7.09903
489 2 1.9626 45.4508 -9.89994 1.9626 45.4508 -9.89994
490 1 3.40644 46.2278 -7.94132 3.40644 46.2278 -7.94132
491 2 5.2968 45.5459 -6.47294 5.2968 45.5459 -6.47294
492 2 5.27352 46.9144 -9.36567 5.27352 46.9144 -9.36567
493 1 6.23822 44.6682 -8.60578 6.23822 44.6682 -8.60578
494 2 8.26254 43.9952 -7.23745 8.26254 43.9952 -7.23745
495 2 7.99153 45.1729 9.72559 7.99153 45.1729 -10.2744
496 1 9.27326 46.0441 -8.16931 9.27326 46.0441 -8.16931
497 2 11.1402 45.4187 -6.58915 11.1402 45.4187 -6.58915
498 2 11.3377 46.683 -9.60919 11.3377 46.683 -9.60919
499 1 12.2741 44.4966 -8.6231 12.2741 44.4966 -8.6231
500 2 14.4442 43.8397 -7.40974 14.4442 43.8397 -7.40974
501 2 14.0294 45.4216 9.76277 14.0294 45.4216 -10.2372
502 1 15.237 46.1563 -8.11242 15.237 46.1563 -8.11242
503 2 16.8973 45.1855 -6.31471 16.8973 45.1855 -6.31471
504 2 17.4578 46.6658 -9.31316 17.4578 46.6658 -9.31316
505 1 18.1706 44.4049 -8.41441 18.1706 44.4049 -8.41441
506 2 20.0178 43.9106 -6.83494 20.0178 43.9106 -6.83494
507 2 20.145 44.6962 -9.95814 20.145 44.6962 -9.95814
508 1 21.124 45.9464 -7.85974 21.124 45.9464 -7.85974
509 2 23.0605 45.4995 -6.28562 23.0605 45.4995 -6.28562
510 2 23.1449 46.579 -9.38477 23.1449 46.579 -9.38477
511 1 24.1222 44.5292 -8.3144 24.1222 44.5292 -8.3144
512 2 25.9314 43.8785 -6.657 25.9314 43.8785 -6.657
513 2 26.1596 45.0462 -9.8009 26.1596 45.0462 -9.8009
514 1 26.9426 46.0394 -7.59699 26.9426 46.0394 -7.59699
515 2 28.9633 45.497 -6.03016 28.9633 45.497 -6.03016
516 2 28.7855 46.8093 -9.12266 28.7855 46.8093 -9.12266
517 1 29.9269 44.6417 -8.26305 29.9269 44.6417 -8.26305
518 2 31.976 44.0279 -6.80377 31.976 44.0279 -6.80377
519 2 31.7911 45.5331 -9.67893 31.7911 45.5331 -9.67893
520 1 32.6864 46.3407 -7.4595 32.6864 46.3407 -7.4595
521 2 34.9466 45.8692 -6.33834 34.9466 45.8692 -6.33834
522 2 34.2691 47.1492 -9.18937 34.2691 47.1492 -9.18937
523 1 35.7371 45.0512 -8.70517 35.7371 45.0512 -8.70517
524 2 37.9207 44.8688 -7.32042 37.9207 44.8688 -7.32042
525 2 36.5377 46.4247 9.56594 36.5377 46.4247 -10.4341
526 1 38.2928 46.9071 -8.82713 38.2928 46.9071 -8.82713
527 2 41.0206 45.8498 -8.24263 41.0206 45.8498 -8.24263
528 2 38.893 45.2522 9.10547 38.893 45.2522 -10.8945
529 1 42.9295 44.0707 -8.84666 42.9295 44.0707 -8.84666
530 2 39.4326 47.4718 -6.71607 39.4326 47.4718 -6.71607
531 2 39.6899 48.3527 9.51453 39.6899 48.3527 -10.4855
532 1 43.5786 47.2078 -8.5056 43.5786 47.2078 -8.5056
533 2 45.1242 46.5339 -6.64013 45.1242 46.5339 -6.64013
534 2 45.818 47.5539 -9.75956 45.818 47.5539 -9.75956
535 1 46.052 45.3145 -8.70684 46.052 45.3145 -8.70684
536 2 47.5725 44.7187 -6.7569 47.5725 44.7187 -6.7569
537 2 48.2147 45.5883 -9.74469 48.2147 45.5883 -9.74469
538 1 48.9875 46.6209 -7.5868 48.9875 46.6209 -7.5868
539 2 50.9447 45.9015 -6.06736 50.9447 45.9015 -6.06736
540 2 50.8901 46.948 -9.15559 50.8901 46.948 -9.15559