ITEM: TIMESTEP
3317000
ITEM: NUMBER OF ATOMS
810
ITEM: BOX BOUNDS pp pp pp
8.0341777045796159e-01 5.2214187229542503e+01
-7.3879287549550625e+00 5.8404143754953928e+01
-1.0000000000000000e+01 1.0000000000000000e+01
ITEM: ATOMS id type x y z xu yu zu
1 1 0.896239 57.7635 0.511219 0.896239 -8.02853 0.511219
2 2 2.89576 57.209 2.03237 2.89576 -8.58306 2.03237
3 2 2.82831 58.1813 -1.03502 2.82831 -7.61079 -1.03502
4 1 3.85182 -6.50633 0.932487 3.85182 -6.50633 0.932487
5 2 5.74379 -7.04789 2.55547 5.74379 -7.04789 2.55547
6 2 5.855 -6.07436 -0.563069 5.855 -6.07436 -0.563069
7 1 6.68949 57.6619 0.497875 6.68949 -8.13017 0.497875
8 2 8.5673 56.986 2.11205 8.5673 -8.80609 2.11205
9 2 8.65467 58.1405 -1.01104 8.65467 -7.65162 -1.01104
10 1 9.62993 -6.70582 1.08496 9.62993 -6.70582 1.08496
11 2 11.5283 58.5032 2.64265 11.5283 -7.28887 2.64265
12 2 11.5839 -6.24474 -0.409705 11.5839 -6.24474 -0.409705
13 1 12.5362 57.5367 0.535023 12.5362 -8.25539 0.535023
14 2 14.2278 57.0475 2.24928 14.2278 -8.74459 2.24928
15 2 14.5218 58.0091 -0.831718 14.5218 -7.783 -0.831718
16 1 15.3056 -6.76791 1.32166 15.3056 -6.76791 1.32166
17 2 17.1108 58.4183 3.04739 17.1108 -7.37382 3.04739
18 2 17.3029 -6.10694 -0.0437255 17.3029 -6.10694 -0.0437255
19 1 18.0881 57.4233 0.754844 18.0881 -8.36874 0.754844
20 2 19.8543 56.9522 2.45698 19.8543 -8.83987 2.45698
21 2 20.076 57.7917 -0.6723 20.076 -8.00035 -0.6723
22 1 20.9246 -6.83861 1.46416 20.9246 -6.83861 1.46416
23 2 22.758 58.5136 3.11919 22.758 -7.27849 3.11919
24 2 22.9183 -6.3428 0.0297607 22.9183 -6.3428 0.0297607
25 1 23.8393 57.3414 1.16781 23.8393 -8.45064 1.16781
26 2 25.7487 56.7095 2.67986 25.7487 -9.08259 2.67986
27 2 25.6433 57.9188 -0.473933 25.6433 -7.87326 -0.473933
28 1 26.6512 -6.90211 1.6025 26.6512 -6.90211 1.6025
29 2 28.4767 -7.48852 3.29123 28.4767 -7.48852 3.29123
30 2 28.6179 -6.16858 0.277925 28.6179 -6.16858 0.277925
31 1 29.4872 57.3646 1.04158 29.4872 -8.42747 1.04158
32 2 31.5968 56.8425 2.38985 31.5968 -8.94953 2.38985
33 2 31.2358 58.1803 -0.574887 31.2358 -7.61181 -0.574887
34 1 32.3953 -6.76091 1.42055 32.3953 -6.76091 1.42055
35 2 34.4991 -7.19798 2.77091 34.4991 -7.19798 2.77091
36 2 34.0757 -5.88775 -0.196742 34.0757 -5.88775 -0.196742
37 1 35.2225 57.7835 0.471244 35.2225 -8.00855 0.471244
38 2 37.0973 57.1174 1.94546 37.0973 -8.67467 1.94546
39 2 37.153 -7.30564 -0.971764 37.153 -7.30564 -0.971764
40 1 38.208 -6.4912 1.18818 38.208 -6.4912 1.18818
41 2 40.058 -7.20431 2.64668 40.058 -7.20431 2.64668
42 2 40.1116 -5.7449 -0.227161 40.1116 -5.7449 -0.227161
43 1 41.0068 57.8457 0.558131 41.0068 -7.94635 0.558131
44 2 42.8938 57.19 2.11559 42.8938 -8.60209 2.11559
45 2 42.8481 58.3602 -0.930908 42.8481 -7.43185 -0.930908
46 1 43.8907 -6.41211 1.13661 43.8907 -6.41211 1.13661
47 2 45.7837 -7.18931 2.57857 45.7837 -7.18931 2.57857
48 2 45.7629 -5.71161 -0.387567 45.7629 -5.71161 -0.387567
49 1 46.695 57.7938 0.409676 46.695 -7.99825 0.409676
50 2 48.3883 57.1209 2.01378 48.3883 -8.67121 2.01378
51 2 48.6461 58.5057 -0.896063 48.6461 -7.28639 -0.896063
52 1 49.4862 -6.59436 1.3222 49.4862 -6.59436 1.3222
53 2 51.5227 -7.21869 2.73205 51.5227 -7.21869 2.73205
54 2 51.3076 -5.9354 -0.303589 51.3076 -5.9354 -0.303589
55 1 0.942322 -5.09852 1.7827 0.942322 -5.09852 1.7827
56 2 2.90281 -5.89525 3.14309 2.90281 -5.89525 3.14309
57 2 2.85117 -4.27438 0.294476 2.85117 -4.27438 0.294476
58 1 3.91582 -3.66434 2.46781 3.91582 -3.66434 2.46781
59 2 5.93328 -4.38443 3.70496 5.93328 -4.38443 3.70496
60 2 5.66556 -2.94794 0.765379 5.66556 -2.94794 0.765379
61 1 6.78005 -5.0232 1.54567 6.78005 -5.0232 1.54567
62 2 8.60565 -5.71551 3.20146 8.60565 -5.71551 3.20146
63 2 8.78385 -4.48556 0.148253 8.78385 -4.48556 0.148253
64 1 9.72743 -3.66775 2.29086 9.72743 -3.66775 2.29086
65 2 11.482 -4.40217 3.77543 11.482 -4.40217 3.77543
66 2 11.6088 -3.0327 0.80466 11.6088 -3.0327 0.80466
67 1 12.4842 -5.1912 1.64161 12.4842 -5.1912 1.64161
68 2 14.1921 -5.8874 3.3698 14.1921 -5.8874 3.3698
69 2 14.4585 -4.61486 0.341957 14.4585 -4.61486 0.341957
70 1 15.2149 -3.74483 2.57851 15.2149 -3.74483 2.57851
71 2 17.1107 -4.31728 4.2115 17.1107 -4.31728 4.2115
72 2 17.3189 -3.0925 1.17869 17.3189 -3.0925 1.17869
73 1 18.1078 -5.22778 2.15996 18.1078 -5.22778 2.15996
74 2 20.0147 -5.84129 3.64757 20.0147 -5.84129 3.64757
75 2 20.0462 -4.63429 0.546912 20.0462 -4.63429 0.546912
76 1 20.9791 -3.7329 2.64956 20.9791 -3.7329 2.64956
77 2 22.8467 -4.49117 4.25897 22.8467 -4.49117 4.25897
78 2 22.9759 -2.93977 1.28141 22.9759 -2.93977 1.28141
79 1 23.8386 -5.19791 2.09427 23.8386 -5.19791 2.09427
80 2 25.6311 -5.8368 3.76828 25.6311 -5.8368 3.76828
81 2 25.8741 -4.63909 0.718737 25.8741 -4.63909 0.718737
82 1 26.6721 -3.74231 2.91607 26.6721 -3.74231 2.91607
83 2 28.6392 -4.18656 4.55302 28.6392 -4.18656 4.55302
84 2 28.5451 -3.37979 1.32241 28.5451 -3.37979 1.32241
85 1 29.5426 -5.31872 2.49064 29.5426 -5.31872 2.49064
86 2 31.5971 -5.86003 3.7224 31.5971 -5.86003 3.7224
87 2 31.221 -4.58542 0.777963 31.221 -4.58542 0.777963
88 1 32.4237 -3.77264 2.69086 32.4237 -3.77264 2.69086
89 2 34.3871 -4.47283 4.04303 34.3871 -4.47283 4.04303
90 2 34.2591 -2.90377 1.28491 34.2591 -2.90377 1.28491
91 1 35.2933 -5.07224 1.81593 35.2933 -5.07224 1.81593
92 2 37.2473 -5.8305 3.31745 37.2473 -5.8305 3.31745
93 2 37.2043 -4.36909 0.40049 37.2043 -4.36909 0.40049
94 1 38.1707 -3.57417 2.62026 38.1707 -3.57417 2.62026
95 2 40.2387 -3.95897 4.084 40.2387 -3.95897 4.084
96 2 40.0492 -2.8884 0.912808 40.0492 -2.8884 0.912808
97 1 41.0221 -4.87561 1.91694 41.0221 -4.87561 1.91694
98 2 42.8291 -5.66676 3.28721 42.8291 -5.66676 3.28721
99 2 42.8621 -4.21062 0.404595 42.8621 -4.21062 0.404595
100 1 43.8881 -3.4389 2.69819 43.8881 -3.4389 2.69819
101 2 45.8377 -4.13545 4.05657 45.8377 -4.13545 4.05657
102 2 45.7004 -2.7488 1.0921 45.7004 -2.7488 1.0921
103 1 46.6746 -4.95723 1.87715 46.6746 -4.95723 1.87715
104 2 48.5211 -5.60759 3.3973 48.5211 -5.60759 3.3973
105 2 48.6746 -4.46578 0.299021 48.6746 -4.46578 0.299021
106 1 49.5931 -3.5132 2.33587 49.5931 -3.5132 2.33587
107 2 51.3278 -4.15308 3.96213 51.3278 -4.15308 3.96213
108 2 51.6407 -2.92467 0.874534 51.6407 -2.92467 0.874534
109 1 1.08418 -2.05115 3.11724 1.08418 -2.05115 3.11724
110 2 2.95436 -2.77791 4.67013 2.95436 -2.77791 4.67013
111 2 3.11544 -1.35156 1.72428 3.11544 -1.35156 1.72428
112 1 4.00036 -0.699048 3.94188 4.00036 -0.699048 3.94188
113 2 6.08472 -1.48334 5.17131 6.08472 -1.48334 5.17131
114 2 5.83403 7.78953e-05 2.3329 5.83403 7.78953e-05 2.3329
115 1 6.84538 -2.1884 2.91403 6.84538 -2.1884 2.91403
116 2 8.73556 -2.89421 4.49297 8.73556 -2.89421 4.49297
117 2 8.75492 -1.36062 1.61076 8.75492 -1.36062 1.61076
118 1 9.68354 -0.736201 3.8979 9.68354 -0.736201 3.8979
119 2 11.5973 -1.54259 5.3732 11.5973 -1.54259 5.3732
120 2 11.5658 0.212653 2.63701 11.5658 0.212653 2.63701
121 1 12.4231 -2.10549 3.04129 12.4231 -2.10549 3.04129
122 2 14.1288 -2.86397 4.6705 14.1288 -2.86397 4.6705
123 2 14.5305 -1.45155 1.77857 14.5305 -1.45155 1.77857
124 1 15.3695 -0.734551 4.074 15.3695 -0.734551 4.074
125 2 17.2962 -1.3272 5.49639 17.2962 -1.3272 5.49639
126 2 17.2288 -0.177438 2.40937 17.2288 -0.177438 2.40937
127 1 18.2269 -2.27535 3.34128 18.2269 -2.27535 3.34128
128 2 20.2278 -2.7837 4.80412 20.2278 -2.7837 4.80412
129 2 19.9738 -1.6873 1.68866 19.9738 -1.6873 1.68866
130 1 21.0405 -0.642224 3.7323 21.0405 -0.642224 3.7323
131 2 22.8003 -1.35167 5.41558 22.8003 -1.35167 5.41558
132 2 23.1376 -0.0630505 2.44983 23.1376 -0.0630505 2.44983
133 1 23.9345 -2.20676 3.47078 23.9345 -2.20676 3.47078
134 2 25.773 -2.7915 5.09431 25.773 -2.7915 5.09431
135 2 25.7849 -1.6807 1.97684 25.7849 -1.6807 1.97684
136 1 26.8558 -0.73506 4.10519 26.8558 -0.73506 4.10519
137 2 28.7708 -1.43985 5.54902 28.7708 -1.43985 5.54902
138 2 28.7063 0.0502781 2.65698 28.7063 0.0502781 2.65698
139 1 29.5569 -2.18451 3.29033 29.5569 -2.18451 3.29033
140 2 31.4532 -2.78077 4.76707 31.4532 -2.78077 4.76707
141 2 31.4533 -1.60582 1.81176 31.4533 -1.60582 1.81176
142 1 32.438 -0.656965 3.86289 32.438 -0.656965 3.86289
143 2 34.2461 -1.23824 5.52412 34.2461 -1.23824 5.52412
144 2 34.4425 -0.1722 2.40276 34.4425 -0.1722 2.40276
145 1 35.2432 -2.27262 3.40816 35.2432 -2.27262 3.40816
146 2 37.2691 -2.71664 4.8188 37.2691 -2.71664 4.8188
147 2 36.931 -1.44852 1.79993 36.931 -1.44852 1.79993
148 1 38.1784 -0.473538 3.85089 38.1784 -0.473538 3.85089
149 2 40.2167 -1.00439 5.19726 40.2167 -1.00439 5.19726
150 2 39.961 0.147985 2.1537 39.961 0.147985 2.1537
151 1 41.0755 -1.90249 2.97689 41.0755 -1.90249 2.97689
152 2 42.8496 -2.51976 4.67233 42.8496 -2.51976 4.67233
153 2 43.1572 -1.33881 1.5832 43.1572 -1.33881 1.5832
154 1 43.972 -0.456262 3.7533 43.972 -0.456262 3.7533
155 2 45.854 -0.767239 5.2372 45.854 -0.767239 5.2372
156 2 45.7312 0.194621 2.14811 45.7312 0.194621 2.14811
157 1 46.8478 -1.90792 3.1076 46.8478 -1.90792 3.1076
158 2 48.6414 -2.83423 4.5363 48.6414 -2.83423 4.5363
159 2 48.8938 -1.30149 1.63721 48.8938 -1.30149 1.63721
160 1 49.659 -0.576389 3.81213 49.659 -0.576389 3.81213
161 2 51.5709 -1.23654 5.2859 51.5709 -1.23654 5.2859
162 2 51.5285 0.127072 2.41605 51.5285 0.127072 2.41605
163 1 1.16569 0.894768 4.54003 1.16569 0.894768 4.54003
164 2 2.90139 0.0977135 6.04615 2.90139 0.0977135 6.04615
165 2 3.25134 1.59944 3.16477 3.25134 1.59944 3.16477
166 1 4.10296 2.25977 5.42488 4.10296 2.25977 5.42488
167 2 5.89099 1.27152 6.7852 5.89099 1.27152 6.7852
168 2 5.95132 3.1991 4.25945 5.95132 3.1991 4.25945
169 1 6.91233 0.793289 4.52689 6.91233 0.793289 4.52689
170 2 8.68376 -0.255364 6.10422 8.68376 -0.255364 6.10422
171 2 8.85596 1.48341 3.36629 8.85596 1.48341 3.36629
172 1 9.7162 1.9838 5.71045 9.7162 1.9838 5.71045
173 2 11.6362 1.21531 7.04373 11.6362 1.21531 7.04373
174 2 11.5683 2.86702 4.25792 11.5683 2.86702 4.25792
175 1 12.5287 0.677247 4.86833 12.5287 0.677247 4.86833
176 2 14.4895 0.0628121 6.23379 14.4895 0.0628121 6.23379
177 2 14.3613 1.38163 3.318 14.3613 1.38163 3.318
178 1 15.414 2.30085 5.42893 15.414 2.30085 5.42893
179 2 17.4713 1.61987 6.87799 17.4713 1.61987 6.87799
180 2 17.272 3.09572 3.94202 17.272 3.09572 3.94202
181 1 18.1787 0.838576 4.51777 18.1787 0.838576 4.51777
182 2 20.1073 0.134416 6.01236 20.1073 0.134416 6.01236
183 2 20.0347 1.6499 3.05245 20.0347 1.6499 3.05245
184 1 21.0617 2.4673 5.23188 21.0617 2.4673 5.23188
185 2 22.9611 1.98947 6.81544 22.9611 1.98947 6.81544
186 2 22.928 3.02923 3.73013 22.928 3.02923 3.73013
187 1 23.9101 0.800637 4.66289 23.9101 0.800637 4.66289
188 2 25.8371 0.213033 6.21591 25.8371 0.213033 6.21591
189 2 25.8303 1.38666 3.12908 25.8303 1.38666 3.12908
190 1 26.7173 2.34443 5.23622 26.7173 2.34443 5.23622
191 2 28.4892 1.83168 6.88594 28.4892 1.83168 6.88594
192 2 28.6656 2.97625 3.78502 28.6656 2.97625 3.78502
193 1 29.5946 0.797994 4.85753 29.5946 0.797994 4.85753
194 2 31.5286 0.0417927 6.19233 31.5286 0.0417927 6.19233
195 2 31.3528 1.53249 3.31183 31.3528 1.53249 3.31183
196 1 32.4362 2.34504 5.35622 32.4362 2.34504 5.35622
197 2 34.4423 1.92832 6.73755 34.4423 1.92832 6.73755
198 2 34.1718 2.85015 3.69001 34.1718 2.85015 3.69001
199 1 35.3057 0.772938 4.61772 35.3057 0.772938 4.61772
200 2 37.4033 0.386343 6.04845 37.4033 0.386343 6.04845
201 2 36.9038 1.45579 2.79622 36.9038 1.45579 2.79622
202 1 38.2142 2.61665 4.76109 38.2142 2.61665 4.76109
203 2 40.0099 1.86717 6.45193 40.0099 1.86717 6.45193
204 2 40.0857 3.48911 3.4434 40.0857 3.48911 3.4434
205 1 41.1341 1.16441 4.09466 41.1341 1.16441 4.09466
206 2 42.951 0.588174 5.80688 42.951 0.588174 5.80688
207 2 43.1744 1.78314 2.79253 43.1744 1.78314 2.79253
208 1 44.0534 2.71015 4.95501 44.0534 2.71015 4.95501
209 2 45.9884 2.01587 6.36239 45.9884 2.01587 6.36239
210 2 45.8329 3.3988 3.41793 45.8329 3.3988 3.41793
211 1 46.8346 1.25585 4.16879 46.8346 1.25585 4.16879
212 2 48.5541 0.546402 5.8269 48.5541 0.546402 5.8269
213 2 48.9217 1.66631 2.86455 48.9217 1.66631 2.86455
214 1 49.76 2.64574 4.91798 49.76 2.64574 4.91798
215 2 51.412 1.78616 6.59089 51.412 1.78616 6.59089
216 2 51.9835 3.17503 3.77277 51.9835 3.17503 3.77277
217 1 1.27639 3.8371 6.08172 1.27639 3.8371 6.08172
218 2 2.98794 2.85387 7.65863 2.98794 2.85387 7.65863
219 2 3.26937 4.55071 4.77929 3.26937 4.55071 4.77929
220 1 4.10855 5.08894 7.13462 4.10855 5.08894 7.13462
221 2 6.0437 4.47945 8.62565 6.0437 4.47945 8.62565
222 2 5.96092 5.76484 5.58028 5.96092 5.76484 5.58028
223 1 6.86186 3.59144 6.46469 6.86186 3.59144 6.46469
224 2 8.73551 2.89689 7.88588 8.73551 2.89689 7.88588
225 2 8.72624 4.18828 4.95843 8.72624 4.18828 4.95843
226 1 9.71782 5.02695 7.07602 9.71782 5.02695 7.07602
227 2 11.5908 4.23796 8.57096 11.5908 4.23796 8.57096
228 2 11.6496 5.79542 5.7138 11.6496 5.79542 5.7138
229 1 12.5665 3.52374 6.43312 12.5665 3.52374 6.43312
230 2 14.6394 2.77646 7.73904 14.6394 2.77646 7.73904
231 2 14.3067 4.47896 4.92573 14.3067 4.47896 4.92573
232 1 15.4016 5.17766 7.12913 15.4016 5.17766 7.12913
233 2 17.5932 4.53018 8.41091 17.5932 4.53018 8.41091
234 2 17.154 6.01306 5.54208 17.154 6.01306 5.54208
235 1 18.2926 3.86265 6.11608 18.2926 3.86265 6.11608
236 2 20.3793 3.2516 7.48746 20.3793 3.2516 7.48746
237 2 20.0658 4.57458 4.43327 20.0658 4.57458 4.43327
238 1 21.0936 5.4656 6.49315 21.0936 5.4656 6.49315
239 2 22.9866 4.8498 8.02439 22.9866 4.8498 8.02439
240 2 23.0877 6.21634 4.99907 23.0877 6.21634 4.99907
241 1 23.9458 4.04534 5.83148 23.9458 4.04534 5.83148
242 2 25.853 3.23011 7.30403 25.853 3.23011 7.30403
243 2 25.8729 4.60805 4.36858 25.8729 4.60805 4.36858
244 1 26.8346 5.4275 6.49665 26.8346 5.4275 6.49665
245 2 28.8232 4.95231 8.0588 28.8232 4.95231 8.0588
246 2 28.647 5.91201 4.89988 28.647 5.91201 4.89988
247 1 29.6068 3.82859 5.95783 29.6068 3.82859 5.95783
248 2 31.4693 3.21499 7.46381 31.4693 3.21499 7.46381
249 2 31.4623 4.39352 4.39161 31.4623 4.39352 4.39161
250 1 32.444 5.38964 6.51813 32.444 5.38964 6.51813
251 2 34.6742 5.04755 7.86592 34.6742 5.04755 7.86592
252 2 34.2069 6.07434 4.70411 34.2069 6.07434 4.70411
253 1 35.3735 4.03421 5.70917 35.3735 4.03421 5.70917
254 2 37.419 3.46089 6.93155 37.419 3.46089 6.93155
255 2 36.9786 4.65731 3.96385 36.9786 4.65731 3.96385
256 1 38.114 5.62179 5.908 38.114 5.62179 5.908
257 2 41.855 6.19468 7.26863 41.855 6.19468 7.26863
258 2 40.2711 6.38325 4.85599 40.2711 6.38325 4.85599
259 1 41.1172 4.18911 5.75209 41.1172 4.18911 5.75209
260 2 43.2018 3.67817 7.12264 43.2018 3.67817 7.12264
261 2 43.0005 4.77432 4.14158 43.0005 4.77432 4.14158
262 1 44.1022 5.75244 6.18963 44.1022 5.75244 6.18963
263 2 45.9296 4.80399 7.71979 45.9296 4.80399 7.71979
264 2 46.1803 6.39868 4.917 46.1803 6.39868 4.917
265 1 46.946 4.23345 5.57647 46.946 4.23345 5.57647
266 2 48.7421 3.43903 7.06109 48.7421 3.43903 7.06109
267 2 48.808 4.91302 4.07944 48.808 4.91302 4.07944
268 1 49.7933 5.49613 6.2677 49.7933 5.49613 6.2677
269 2 51.4641 4.86085 7.96891 51.4641 4.86085 7.96891
270 2 51.9616 5.85734 4.95614 51.9616 5.85734 4.95614
271 1 1.29684 6.84422 7.15918 1.29684 6.84422 7.15918
272 2 2.78867 6.27606 8.9625 2.78867 6.27606 8.9625
273 2 3.39905 7.29488 5.9038 3.39905 7.29488 5.9038
274 1 4.10392 8.27767 8.15304 4.10392 8.27767 8.15304
275 2 6.01545 7.75618 9.78846 6.01545 7.75618 9.78846
276 2 6.02542 8.73283 6.61474 6.02542 8.73283 6.61474
277 1 6.94839 6.6019 7.79571 6.94839 6.6019 7.79571
278 2 8.89055 5.86717 9.31637 8.89055 5.86717 9.31637
279 2 8.79898 7.27195 6.34192 8.79898 7.27195 6.34192
280 1 9.77238 8.07817 8.5177 9.77238 8.07817 8.5177
281 2 11.5959 7.45359 9.98579 11.5959 7.45359 9.98579
282 2 11.5897 8.62917 6.92601 11.5897 8.62917 6.92601
283 1 12.5671 6.48895 7.88926 12.5671 6.48895 7.88926
284 2 14.599 5.87815 9.36625 14.599 5.87815 9.36625
285 2 14.4364 7.24939 6.35188 14.4364 7.24939 6.35188
286 1 15.343 8.15764 8.49051 15.343 8.15764 8.49051
287 2 17.3604 7.41848 9.93307 17.3604 7.41848 9.93307
288 2 17.0934 9 6.98193 17.0934 9 6.98193
289 1 18.3053 6.78577 7.71872 18.3053 6.78577 7.71872
290 2 20.4749 6.32079 8.83874 20.4749 6.32079 8.83874
291 2 19.7301 7.53027 5.82596 19.7301 7.53027 5.82596
292 1 21.1232 8.53717 7.73629 21.1232 8.53717 7.73629
293 2 23.2357 8.33968 9.09971 23.2357 8.33968 9.09971
294 2 22.8471 8.98664 5.9256 22.8471 8.98664 5.9256
295 1 23.9743 7.06708 7.17346 23.9743 7.06708 7.17346
296 2 25.864 6.21505 8.63901 25.864 6.21505 8.63901
297 2 25.9587 7.5882 5.66178 25.9587 7.5882 5.66178
298 1 26.9088 8.54961 7.78175 26.9088 8.54961 7.78175
299 2 28.9551 8.15457 9.1124 28.9551 8.15457 9.1124
300 2 28.6786 9.06634 5.95148 28.6786 9.06634 5.95148
301 1 29.6626 7.06406 6.92102 29.6626 7.06406 6.92102
302 2 31.643 6.84363 8.52551 31.643 6.84363 8.52551
303 2 31.4483 7.36972 5.25763 31.4483 7.36972 5.25763
304 1 32.5402 8.71695 7.21941 32.5402 8.71695 7.21941
305 2 34.6432 8.55372 8.72976 34.6432 8.55372 8.72976
306 2 34.5591 9.4767 6.03625 34.5591 9.4767 6.03625
307 1 35.3045 7.23612 6.64447 35.3045 7.23612 6.64447
308 2 37.8291 7.62867 7.25714 37.8291 7.62867 7.25714
309 2 36.7776 7.2815 4.64214 36.7776 7.2815 4.64214
310 1 38.5004 28.7129 8.99107 38.5004 28.7129 -11.0089
311 2 39.175 26.3804 8.75409 39.175 26.3804 -11.2459
312 2 40.714 29.6352 8.35886 40.714 29.6352 -11.6411
313 1 41.5319 27.2099 8.28282 41.5319 27.2099 -11.7172
314 2 41.3531 26.8722 -9.26831 41.3531 26.8722 -9.26831
315 2 43.3456 25.6125 8.68197 43.3456 25.6125 -11.318
316 1 43.8571 27.1437 -9.34489 43.8571 27.1437 -9.34489
317 2 45.8278 26.0349 -8.42397 45.8278 26.0349 -8.42397
318 2 45.6938 27.307 8.98257 45.6938 27.307 -11.0174
319 1 46.9396 7.18815 7.20862 46.9396 7.18815 7.20862
320 2 48.7942 6.14293 8.43866 48.7942 6.14293 8.43866
321 2 48.8057 7.66957 5.59258 48.8057 7.66957 5.59258
322 1 49.7947 8.44158 7.89037 49.7947 8.44158 7.89037
323 2 51.611 7.679 9.23214 51.611 7.679 9.23214
324 2 51.7773 8.97049 6.45084 51.7773 8.97049 6.45084
325 1 1.16165 9.82753 8.61798 1.16165 9.82753 8.61798
326 2 3.18386 9.58908 10.068 3.18386 9.58908 10.068
327 2 3.12825 10.096 6.9715 3.12825 10.096 6.9715
328 1 4.13933 11.5062 8.82882 4.13933 11.5062 8.82882
329 2 5.95974 11.0921 -9.55531 5.95974 11.0921 10.4447
330 2 6.01761 11.7719 7.28774 6.01761 11.7719 7.28774
331 1 6.95013 9.81875 8.71399 6.95013 9.81875 8.71399
332 2 8.55224 9.09204 -9.44255 8.55224 9.09204 10.5574
333 2 9.10694 10.2615 7.58286 9.10694 10.2615 7.58286
334 1 9.69924 11.2515 9.91512 9.69924 11.2515 9.91512
335 2 11.7416 10.5043 -8.78498 11.7416 10.5043 11.215
336 2 11.6037 11.7401 8.22918 11.6037 11.7401 8.22918
337 1 12.52 9.61189 9.04527 12.52 9.61189 9.04527
338 2 14.519 9.2153 -9.3988 14.519 9.2153 10.6012
339 2 14.2361 10.1666 7.36755 14.2361 10.1666 7.36755
340 1 15.3266 11.3432 9.39092 15.3266 11.3432 9.39092
341 2 16.9393 10.6778 -8.75898 16.9393 10.6778 11.241
342 2 17.3756 11.9582 8.31389 17.3756 11.9582 8.31389
343 1 18.2013 9.78649 9.26923 18.2013 9.78649 9.26923
344 2 20.6544 8.86961 -9.94715 20.6544 8.86961 10.0528
345 2 19.7604 10.7244 7.43948 19.7604 10.7244 7.43948
346 1 21.0196 11.36 9.47853 21.0196 11.36 9.47853
347 2 23.4824 11.2531 -9.81149 23.4824 11.2531 10.1885
348 2 22.2169 12.2789 7.47488 22.2169 12.2789 7.47488
349 1 23.9914 10.3363 7.79719 23.9914 10.3363 7.79719
350 2 25.6762 9.70235 9.56915 25.6762 9.70235 9.56915
351 2 26.2971 10.5015 6.42991 26.2971 10.5015 6.42991
352 1 26.7708 11.6937 8.63801 26.7708 11.6937 8.63801
353 2 28.6557 11.0251 -9.8679 28.6557 11.0251 10.1321
354 2 28.6544 12.2494 6.95809 28.6544 12.2494 6.95809
355 1 29.6706 10.2641 7.92452 29.6706 10.2641 7.92452
356 2 31.996 10.6387 8.94739 31.996 10.6387 8.94739
357 2 31.3633 10.508 6.0706 31.3633 10.508 6.0706
358 1 32.8923 31.4536 -9.22271 32.8923 31.4536 -9.22271
359 2 36.3884 30.3833 -7.60518 36.3884 30.3833 -7.60518
360 2 35.024 32.4487 9.87807 35.024 32.4487 -10.1219
361 1 35.7903 30.1031 10.0848 35.7903 30.1031 -9.9152
362 2 38.9469 28.5541 -8.67288 38.9469 28.5541 -8.67288
363 2 37.8203 31.1619 9.0711 37.8203 31.1619 -10.9289
364 1 38.6804 31.1866 -8.57364 38.6804 31.1866 -8.57364
365 2 40.4994 30.2923 -6.97212 40.4994 30.2923 -6.97212
366 2 40.5738 31.7312 -9.98538 40.5738 31.7312 -9.98538
367 1 41.3467 29.3469 -9.2857 41.3467 29.3469 -9.2857
368 2 43.1043 28.6732 -7.50074 43.1043 28.6732 -7.50074
369 2 43.4345 29.0738 9.08937 43.4345 29.0738 -10.9106
370 1 44.4844 30.4632 -8.78691 44.4844 30.4632 -8.78691
371 2 46.0795 29.6975 -7.06428 46.0795 29.6975 -7.06428
372 2 46.4174 30.4069 9.81571 46.4174 30.4069 -10.1843
373 1 46.9103 28.2593 -8.89992 46.9103 28.2593 -8.89992
374 2 48.5946 27.7264 -7.19872 48.5946 27.7264 -7.19872
375 2 49.5721 31.4722 -9.66147 49.5721 31.4722 -9.66147
376 1 50.0566 29.4603 -8.39601 50.0566 29.4603 -8.39601
377 2 48.877 28.7212 9.51655 48.877 28.7212 -10.4834
378 2 0.959474 29.3057 -9.38492 52.3702 29.3057 -9.38492
379 1 50.7066 32.5816 -7.5854 -0.704194 32.5816 -7.5854
380 2 52.2495 32.9137 -5.57617 0.838713 32.9137 -5.57617
381 2 1.50436 32.2254 -8.81982 1.50436 32.2254 -8.81982
382 1 2.66515 33.7333 -7.15415 2.66515 33.7333 -7.15415
383 2 4.63133 33.4105 -5.39178 4.63133 33.4105 -5.39178
384 2 2.98545 31.3534 -6.45765 2.98545 31.3534 -6.45765
385 1 6.81037 13.1112 9.12561 6.81037 13.1112 9.12561
386 2 7.93736 12.819 -8.68086 7.93736 12.819 11.3191
387 2 9.16763 13.0639 8.2799 9.16763 13.0639 8.2799
388 1 9.51544 14.4917 -9.76234 9.51544 14.4917 10.2377
389 2 10.6397 12.9589 -8.28212 10.6397 12.9589 11.7179
390 2 11.9188 14.9527 9.42783 11.9188 14.9527 9.42783
391 1 12.651 12.7419 -9.79195 12.651 12.7419 10.2081
392 2 15.2067 13.1789 -9.02504 15.2067 13.1789 10.975
393 2 14.0452 13.0737 8.19345 14.0452 13.0737 8.19345
394 1 14.9761 33.9839 -7.72953 14.9761 33.9839 -7.72953
395 2 17.0793 33.2714 -6.40294 17.0793 33.2714 -6.40294
396 2 16.2353 35.9184 -8.62002 16.2353 35.9184 -8.62002
397 1 18.054 12.8469 -9.54002 18.054 12.8469 10.46
398 2 19.4861 11.0329 -8.67108 19.4861 11.0329 11.3289
399 2 19.9274 13.6282 8.96528 19.9274 13.6282 8.96528
400 1 20.895 33.8051 -6.97298 20.895 33.8051 -6.97298
401 2 22.1357 34.647 -5.11717 22.1357 34.647 -5.11717
402 2 23.0777 34.0413 -8.40641 23.0777 34.0413 -8.40641
403 1 23.7109 13.3916 9.20229 23.7109 13.3916 9.20229
404 2 25.9927 13.3191 -9.6054 25.9927 13.3191 10.3946
405 2 25.0012 12.6313 7.27843 25.0012 12.6313 7.27843
406 1 27.0392 34.0917 -7.67506 27.0392 34.0917 -7.67506
407 2 30.8277 33.1902 -6.4514 30.8277 33.1902 -6.4514
408 2 29.0177 35.0799 -8.86891 29.0177 35.0799 -8.86891
409 1 30.0256 32.7369 -8.69185 30.0256 32.7369 -8.69185
410 2 33.6544 31.9175 -6.89998 33.6544 31.9175 -6.89998
411 2 32.109 33.6838 -9.75979 32.109 33.6838 -9.75979
412 1 32.8937 34.3027 -7.39071 32.8937 34.3027 -7.39071
413 2 34.9281 33.958 -5.69422 34.9281 33.958 -5.69422
414 2 34.9257 34.9513 -8.88489 34.9257 34.9513 -8.88489
415 1 35.8593 32.7491 -7.84831 35.8593 32.7491 -7.84831
416 2 37.9632 32.2864 -6.327 37.9632 32.2864 -6.327
417 2 37.7249 33.489 -9.46395 37.7249 33.489 -9.46395
418 1 38.9894 34.3618 -7.43406 38.9894 34.3618 -7.43406
419 2 40.6361 33.3447 -5.76993 40.6361 33.3447 -5.76993
420 2 41.1445 34.4834 -8.75664 41.1445 34.4834 -8.75664
421 1 41.7319 32.2657 -7.78276 41.7319 32.2657 -7.78276
422 2 43.7292 31.4628 -6.48728 43.7292 31.4628 -6.48728
423 2 43.5455 32.7174 -9.50778 43.5455 32.7174 -9.50778
424 1 44.72 33.5171 -7.49959 44.72 33.5171 -7.49959
425 2 46.8096 32.7668 -6.08512 46.8096 32.7668 -6.08512
426 2 46.7093 33.725 -9.20286 46.7093 33.725 -9.20286
427 1 47.5329 31.5783 -8.19653 47.5329 31.5783 -8.19653
428 2 49.1713 30.7783 -6.49806 49.1713 30.7783 -6.49806
429 2 51.7951 30.4305 -7.0223 51.7951 30.4305 -7.0223
430 1 48.0158 34.6192 -7.14609 48.0158 34.6192 -7.14609
431 2 49.6293 33.5789 -5.57019 49.6293 33.5789 -5.57019
432 2 50.242 34.9274 -8.3294 50.242 34.9274 -8.3294
433 1 51.3506 35.4678 -6.04393 -0.060162 35.4678 -6.04393
434 2 2.42265 35.0342 -4.90354 2.42265 35.0342 -4.90354
435 2 1.71876 35.9974 -8.01883 1.71876 35.9974 -8.01883
436 1 3.18067 37.0451 -6.17767 3.18067 37.0451 -6.17767
437 2 5.10939 36.471 -4.66842 5.10939 36.471 -4.66842
438 2 5.26376 37.2942 -7.8546 5.26376 37.2942 -7.8546
439 1 5.97706 35.2307 -6.55649 5.97706 35.2307 -6.55649
440 2 8.06691 35.0157 -4.97761 8.06691 35.0157 -4.97761
441 2 9.86292 34.7441 -7.14791 9.86292 34.7441 -7.14791
442 1 9.22732 36.8914 -6.09799 9.22732 36.8914 -6.09799
443 2 11.1806 36.575 -4.40087 11.1806 36.575 -4.40087
444 2 11.1644 37.4286 -7.62885 11.1644 37.4286 -7.62885
445 1 12.1409 35.4113 -6.42084 12.1409 35.4113 -6.42084
446 2 14.4958 35.0505 -5.46331 14.4958 35.0505 -5.46331
447 2 13.5391 35.8891 -8.3969 13.5391 35.8891 -8.3969
448 1 15.1748 37.2173 -6.59026 15.1748 37.2173 -6.59026
449 2 16.9627 36.3462 -4.88571 16.9627 36.3462 -4.88571
450 2 17.4466 38.0803 -7.6275 17.4466 38.0803 -7.6275
451 1 18.0524 35.5337 -6.98975 18.0524 35.5337 -6.98975
452 2 19.4756 35.0155 -5.08825 19.4756 35.0155 -5.08825
453 2 20.3911 35.9211 -8.10482 20.3911 35.9211 -8.10482
454 1 21.0719 36.9213 -5.93118 21.0719 36.9213 -5.93118
455 2 23.3317 36.8346 -4.48985 23.3317 36.8346 -4.48985
456 2 22.9109 37.4142 -7.59396 22.9109 37.4142 -7.59396
457 1 24.0866 35.4688 -6.5504 24.0866 35.4688 -6.5504
458 2 26.5172 34.9841 -5.53043 26.5172 34.9841 -5.53043
459 2 25.7036 36.0931 -8.46216 25.7036 36.0931 -8.46216
460 1 26.9925 37.207 -6.44838 26.9925 37.207 -6.44838
461 2 28.8273 36.6306 -4.70967 28.8273 36.6306 -4.70967
462 2 29.1065 37.6932 -7.84016 29.1065 37.6932 -7.84016
463 1 30.0451 35.608 -6.66014 30.0451 35.608 -6.66014
464 2 32.134 35.3393 -5.18438 32.134 35.3393 -5.18438
465 2 31.7535 36.4206 -8.27971 31.7535 36.4206 -8.27971
466 1 32.8949 37.4413 -6.33809 32.8949 37.4413 -6.33809
467 2 35.0905 37.293 -4.9466 35.0905 37.293 -4.9466
468 2 34.656 37.7217 -8.15626 34.656 37.7217 -8.15626
469 1 35.9993 35.9899 -6.84975 35.9993 35.9899 -6.84975
470 2 38.2587 35.6649 -5.43833 38.2587 35.6649 -5.43833
471 2 37.9793 36.2956 -8.52194 37.9793 36.2956 -8.52194
472 1 39.2842 37.6646 -6.66356 39.2842 37.6646 -6.66356
473 2 41.1899 36.8338 -4.89849 41.1899 36.8338 -4.89849
474 2 41.4354 37.4045 -8.19587 41.4354 37.4045 -8.19587
475 1 42.1076 35.2094 -6.56413 42.1076 35.2094 -6.56413
476 2 44.1037 34.0884 -5.18142 44.1037 34.0884 -5.18142
477 2 44.0331 36.186 -7.78997 44.0331 36.186 -7.78997
478 1 41.1578 40.0846 -8.30785 41.1578 40.0846 -8.30785
479 2 44.7422 38.1107 -4.5352 44.7422 38.1107 -4.5352
480 2 43.7448 39.5287 -8.10911 43.7448 39.5287 -8.10911
481 1 45.4881 36.2046 -5.72298 45.4881 36.2046 -5.72298
482 2 47.7079 35.463 -4.73007 47.7079 35.463 -4.73007
483 2 46.947 37.0092 -7.5213 46.947 37.0092 -7.5213
484 1 48.7292 37.4363 -5.87204 48.7292 37.4363 -5.87204
485 2 50.4487 36.8856 -4.16408 50.4487 36.8856 -4.16408
486 2 50.7392 37.6043 -7.35435 50.7392 37.6043 -7.35435
487 1 51.8614 38.6872 -5.33285 0.450614 38.6872 -5.33285
488 2 2.4746 38.0644 -4.00814 2.4746 38.0644 -4.00814
489 2 2.29095 39.2016 -6.99316 2.29095 39.2016 -6.99316
490 1 3.35509 40.228 -4.95714 3.35509 40.228 -4.95714
491 2 5.37203 39.5356 -3.64368 5.37203 39.5356 -3.64368
492 2 5.41714 40.8657 -6.47426 5.41714 40.8657 -6.47426
493 1 6.28284 38.5196 -5.78687 6.28284 38.5196 -5.78687
494 2 8.05274 37.8891 -4.03731 8.05274 37.8891 -4.03731
495 2 8.44902 39.1994 -7.06937 8.44902 39.1994 -7.06937
496 1 9.23326 40.0606 -4.88071 9.23326 40.0606 -4.88071
497 2 11.3094 39.4384 -3.50183 11.3094 39.4384 -3.50183
498 2 11.1221 40.7769 -6.47134 11.1221 40.7769 -6.47134
499 1 12.132 38.58 -5.65381 12.132 38.58 -5.65381
500 2 14.2266 37.9039 -4.306 14.2266 37.9039 -4.306
501 2 14.0148 39.3298 -7.26647 14.0148 39.3298 -7.26647
502 1 15.1129 40.0864 -5.11359 15.1129 40.0864 -5.11359
503 2 16.9779 39.6301 -3.47977 16.9779 39.6301 -3.47977
504 2 17.1515 40.6272 -6.44067 17.1515 40.6272 -6.44067
505 1 18.1926 38.5131 -5.40082 18.1926 38.5131 -5.40082
506 2 20.0985 38.0677 -3.78138 20.0985 38.0677 -3.78138
507 2 20.2082 39.0641 -7.01752 20.2082 39.0641 -7.01752
508 1 21.0346 40.1181 -4.98101 21.0346 40.1181 -4.98101
509 2 23.1854 39.7241 -3.64443 23.1854 39.7241 -3.64443
510 2 22.8397 40.7877 -6.65821 22.8397 40.7877 -6.65821
511 1 24.017 38.7657 -5.78418 24.017 38.7657 -5.78418
512 2 26.0787 38.1536 -4.30483 26.0787 38.1536 -4.30483
513 2 25.952 39.3137 -7.32682 25.952 39.3137 -7.32682
514 1 26.8525 40.1976 -5.22176 26.8525 40.1976 -5.22176
515 2 28.7834 39.6109 -3.5568 28.7834 39.6109 -3.5568
516 2 28.697 40.7585 -6.71621 28.697 40.7585 -6.71621
517 1 29.9224 38.7595 -5.67021 29.9224 38.7595 -5.67021
518 2 31.8642 38.2168 -4.22074 31.8642 38.2168 -4.22074
519 2 31.7047 39.5106 -7.22796 31.7047 39.5106 -7.22796
520 1 32.5929 40.4149 -5.09326 32.5929 40.4149 -5.09326
521 2 34.7909 40.0878 -4.01828 34.7909 40.0878 -4.01828
522 2 34.0488 41.2644 -6.91842 34.0488 41.2644 -6.91842
523 1 35.6296 39.2926 -6.43407 35.6296 39.2926 -6.43407
524 2 37.6704 39.2199 -5.00007 37.6704 39.2199 -5.00007
525 2 36.5189 40.7159 -8.31866 36.5189 40.7159 -8.31866
526 1 38.3594 40.9701 -6.61522 38.3594 40.9701 -6.61522
527 2 40.9568 39.9823 -5.87962 40.9568 39.9823 -5.87962
528 2 38.8336 39.2705 -8.57316 38.8336 39.2705 -8.57316
529 1 42.8184 38.1604 -6.25159 42.8184 38.1604 -6.25159
530 2 39.2277 41.6062 -4.45282 39.2277 41.6062 -4.45282
531 2 39.6928 42.1698 -8.25201 39.6928 42.1698 -8.25201
532 1 43.607 41.3149 -6.48858 43.607 41.3149 -6.48858
533 2 45.0119 40.8548 -4.50004 45.0119 40.8548 -4.50004
534 2 45.847 41.3808 -7.73482 45.847 41.3808 -7.73482
535 1 46.0753 39.3829 -6.26841 46.0753 39.3829 -6.26841
536 2 47.5999 38.8479 -4.21715 47.5999 38.8479 -4.21715
537 2 48.31 39.4852 -7.35489 48.31 39.4852 -7.35489
538 1 49.1205 40.5834 -5.25716 49.1205 40.5834 -5.25716
539 2 50.7944 40.0652 -3.52374 50.7944 40.0652 -3.52374
540 2 51.2352 40.9117 -6.54271 51.2352 40.9117 -6.54271
541 1 52.039 42.0072 -4.5159 0.628193 42.0072 -4.5159
542 2 2.5759 41.4949 -2.95936 2.5759 41.4949 -2.95936
543 2 2.4612 42.2843 -6.06178 2.4612 42.2843 -6.06178
544 1 3.58433 43.4341 -4.06741 3.58433 43.4341 -4.06741