ITEM: TIMESTEP
5551000
ITEM: NUMBER OF ATOMS
810
ITEM: BOX BOUNDS pp pp pp
8.0341777045796159e-01 5.2214187229542503e+01
-1.2906419780979569e+01 6.3922634780978441e+01
-1.0000000000000000e+01 1.0000000000000000e+01
ITEM: ATOMS id type x y z xu yu zu
1 1 1.08742 62.727 0.796808 1.08742 -14.1021 0.796808
2 2 2.85992 61.6528 2.15842 2.85992 -15.1763 2.15842
3 2 3.0622 63.702 -0.322313 3.0622 -13.127 -0.322313
4 1 3.90077 -12.8131 2.12318 3.90077 -12.8131 2.12318
5 2 5.58142 62.7943 3.42585 5.58142 -14.0348 3.42585
6 2 5.91726 -11.8995 0.884587 5.91726 -11.8995 0.884587
7 1 6.71541 62.5075 1.11286 6.71541 -14.3216 1.11286
8 2 8.40839 61.3007 2.53222 8.40839 -15.5283 2.53222
9 2 8.6022 63.444 0.0449171 8.6022 -13.3851 0.0449171
10 1 9.54001 63.6442 2.32124 9.54001 -13.1848 2.32124
11 2 11.4549 62.6484 3.56309 11.4549 -14.1807 3.56309
12 2 11.5271 -11.9642 1.05204 11.5271 -11.9642 1.05204
13 1 12.3616 62.4802 1.30178 12.3616 -14.3488 1.30178
14 2 14.2165 61.5713 2.64712 14.2165 -15.2577 2.64712
15 2 14.1984 63.2331 -0.151966 14.1984 -13.596 -0.151966
16 1 15.2089 63.8576 2.11109 15.2089 -12.9714 2.11109
17 2 17.1594 62.8876 3.51094 17.1594 -13.9415 3.51094
18 2 17.0591 -12.0154 0.809927 17.0591 -12.0154 0.809927
19 1 17.9841 62.4989 1.2142 17.9841 -14.3301 1.2142
20 2 19.9102 61.5857 2.48357 19.9102 -15.2433 2.48357
21 2 19.83 63.5405 -0.150218 19.83 -13.2885 -0.150218
22 1 20.8704 63.8675 2.10303 20.8704 -12.9616 2.10303
23 2 22.8242 63 3.42658 22.8242 -13.829 3.42658
24 2 22.7196 -11.8773 0.867396 22.7196 -11.8773 0.867396
25 1 23.6893 62.6169 1.03378 23.6893 -14.2121 1.03378
26 2 25.5069 61.5212 2.38821 25.5069 -15.3079 2.38821
27 2 25.7808 63.3652 -0.250727 25.7808 -13.4638 -0.250727
28 1 26.5426 63.7769 2.1691 26.5426 -13.0522 2.1691
29 2 28.5652 62.8887 3.49141 28.5652 -13.9403 3.49141
30 2 28.4638 -12.1089 0.802019 28.4638 -12.1089 0.802019
31 1 29.5611 62.638 1.15622 29.5611 -14.191 1.15622
32 2 31.5897 61.7664 2.34546 31.5897 -15.0626 2.34546
33 2 31.2692 63.6021 -0.323252 31.2692 -13.227 -0.323252
34 1 32.3991 -12.7654 1.77744 32.3991 -12.7654 1.77744
35 2 34.263 63.142 3.08182 34.263 -13.6871 3.08182
36 2 34.3339 -11.5712 0.548143 34.3339 -11.5712 0.548143
37 1 35.2333 62.9203 0.782874 35.2333 -13.9088 0.782874
38 2 37.2319 61.7447 1.89609 37.2319 -15.0844 1.89609
39 2 37.2336 63.9729 -0.547145 37.2336 -12.8562 -0.547145
40 1 38.2198 -12.768 1.75987 38.2198 -12.768 1.75987
41 2 40.2345 63.2823 3.00578 40.2345 -13.5467 3.00578
42 2 39.978 -11.6689 0.317716 39.978 -11.6689 0.317716
43 1 40.9812 62.8821 0.661226 40.9812 -13.9469 0.661226
44 2 42.9906 61.8856 1.88311 42.9906 -14.9434 1.88311
45 2 42.7857 -12.973 -0.752835 42.7857 -12.973 -0.752835
46 1 43.825 -12.5564 1.50033 43.825 -12.5564 1.50033
47 2 45.6078 63.3327 2.87054 45.6078 -13.4964 2.87054
48 2 45.7439 -11.5443 0.271692 45.7439 -11.5443 0.271692
49 1 46.7434 63.0065 0.498562 46.7434 -13.8225 0.498562
50 2 48.6507 61.8677 1.62067 48.6507 -14.9614 1.62067
51 2 48.5695 64.2377 -0.545855 48.5695 -12.5913 -0.545855
52 1 49.614 -12.6249 1.67709 49.614 -12.6249 1.67709
53 2 51.3926 63.0453 3.04008 51.3926 -13.7837 3.04008
54 2 51.5879 -11.792 0.480891 51.5879 -11.792 0.480891
55 1 0.967415 -11.4814 2.84838 0.967415 -11.4814 2.84838
56 2 2.74544 -12.7064 4.25463 2.74544 -12.7064 4.25463
57 2 3.098 -10.4674 1.74512 3.098 -10.4674 1.74512
58 1 3.84243 -10.2796 4.1647 3.84243 -10.2796 4.1647
59 2 5.52872 -11.3323 5.54592 5.52872 -11.3323 5.54592
60 2 5.92427 -9.45827 2.92938 5.92427 -9.45827 2.92938
61 1 6.71154 -11.7558 3.32152 6.71154 -11.7558 3.32152
62 2 8.5806 63.8972 4.6856 8.5806 -12.9318 4.6856
63 2 8.64985 -10.838 2.12972 8.64985 -10.838 2.12972
64 1 9.55288 -10.7007 4.55705 9.55288 -10.7007 4.55705
65 2 11.4515 -11.7338 5.69099 11.4515 -11.7338 5.69099
66 2 11.5097 -9.53362 3.3072 11.5097 -9.53362 3.3072
67 1 12.3836 -11.827 3.36735 12.3836 -11.827 3.36735
68 2 14.4872 64.2462 4.5046 14.4872 -12.5828 4.5046
69 2 14.1063 -10.8526 1.85199 14.1063 -10.8526 1.85199
70 1 15.1975 -10.3644 4.05404 15.1975 -10.3644 4.05404
71 2 17.0832 -11.4826 5.37741 17.0832 -11.4826 5.37741
72 2 17.1252 -9.34339 2.87774 17.1252 -9.34339 2.87774
73 1 18.0693 -11.639 3.10085 18.0693 -11.639 3.10085
74 2 19.9004 -12.7236 4.44079 19.9004 -12.7236 4.44079
75 2 19.978 -10.6119 1.90301 19.978 -10.6119 1.90301
76 1 20.912 -10.438 4.19722 20.912 -10.438 4.19722
77 2 22.9493 -11.4516 5.35202 22.9493 -11.4516 5.35202
78 2 22.7277 -9.33065 2.93166 22.7277 -9.33065 2.93166
79 1 23.7835 -11.5918 3.06175 23.7835 -11.5918 3.06175
80 2 25.5982 -12.7148 4.42763 25.5982 -12.7148 4.42763
81 2 25.8213 -10.7047 1.93579 25.8213 -10.7047 1.93579
82 1 26.6874 -10.4649 4.2262 26.6874 -10.4649 4.2262
83 2 28.7758 -11.3453 5.38827 28.7758 -11.3453 5.38827
84 2 28.3273 -9.38658 2.78619 28.3273 -9.38658 2.78619
85 1 29.4792 -11.6555 3.07183 29.4792 -11.6555 3.07183
86 2 31.5478 -12.6152 4.18973 31.5478 -12.6152 4.18973
87 2 31.3472 -10.4792 1.66454 31.3472 -10.4792 1.66454
88 1 32.5085 -10.2469 3.95662 32.5085 -10.2469 3.95662
89 2 34.5088 -11.3341 5.19054 34.5088 -11.3341 5.19054
90 2 34.263 -9.05101 2.81372 34.263 -9.05101 2.81372
91 1 35.3064 -11.3154 2.85189 35.3064 -11.3154 2.85189
92 2 37.2048 -12.4846 4.07099 37.2048 -12.4846 4.07099
93 2 37.2798 -10.4843 1.47804 37.2798 -10.4843 1.47804
94 1 38.2262 -10.1187 3.83495 38.2262 -10.1187 3.83495
95 2 40.0433 -11.3574 5.0217 40.0433 -11.3574 5.0217
96 2 40.0038 -8.93524 2.86674 40.0038 -8.93524 2.86674
97 1 41.0348 -11.3075 2.62466 41.0348 -11.3075 2.62466
98 2 42.8569 -12.2981 3.91153 42.8569 -12.2981 3.91153
99 2 42.8736 -10.2769 1.40011 42.8736 -10.2769 1.40011
100 1 43.7903 -9.9926 3.72887 43.7903 -9.9926 3.72887
101 2 45.7055 -11.1283 4.89156 45.7055 -11.1283 4.89156
102 2 45.7093 -8.73852 2.63867 45.7093 -8.73852 2.63867
103 1 46.7331 -11.1885 2.65182 46.7331 -11.1885 2.65182
104 2 48.5413 -12.4534 3.88911 48.5413 -12.4534 3.88911
105 2 48.7056 -10.1747 1.5311 48.7056 -10.1747 1.5311
106 1 49.5346 -10.1138 3.77708 49.5346 -10.1138 3.77708
107 2 51.2551 -11.2372 5.13961 51.2551 -11.2372 5.13961
108 2 51.6047 -9.06195 2.7215 51.6047 -9.06195 2.7215
109 1 0.951897 -8.91365 5.14687 0.951897 -8.91365 5.14687
110 2 2.82927 -10.071 6.41101 2.82927 -10.071 6.41101
111 2 3.02969 -7.98992 3.95823 3.02969 -7.98992 3.95823
112 1 3.89406 -7.76238 6.33437 3.89406 -7.76238 6.33437
113 2 5.76769 -8.8431 7.63052 5.76769 -8.8431 7.63052
114 2 5.76989 -6.85293 5.01542 5.76989 -6.85293 5.01542
115 1 6.71287 -9.14125 5.30193 6.71287 -9.14125 5.30193
116 2 8.5186 -10.2371 6.70586 8.5186 -10.2371 6.70586
117 2 8.78532 -8.3786 4.12277 8.78532 -8.3786 4.12277
118 1 9.52032 -8.0519 6.58946 9.52032 -8.0519 6.58946
119 2 11.4298 -8.94729 7.92401 11.4298 -8.94729 7.92401
120 2 11.4063 -7.1952 5.21878 11.4063 -7.1952 5.21878
121 1 12.4486 -9.34875 5.64195 12.4486 -9.34875 5.64195
122 2 14.4966 -10.4746 6.45896 14.4966 -10.4746 6.45896
123 2 14.0468 -8.1082 4.24995 14.0468 -8.1082 4.24995
124 1 15.3456 -7.97856 6.47732 15.3456 -7.97856 6.47732
125 2 17.497 -8.82583 7.6071 17.497 -8.82583 7.6071
126 2 16.9812 -6.91503 4.97437 16.9812 -6.91503 4.97437
127 1 18.1547 -9.14366 5.22227 18.1547 -9.14366 5.22227
128 2 20.0787 -10.0742 6.56498 20.0787 -10.0742 6.56498
129 2 20.0628 -8.0356 3.90984 20.0628 -8.0356 3.90984
130 1 20.9236 -7.70654 6.1369 20.9236 -7.70654 6.1369
131 2 22.9159 -8.61634 7.51487 22.9159 -8.61634 7.51487
132 2 22.8332 -6.65531 4.79608 22.8332 -6.65531 4.79608
133 1 23.7853 -9.02956 5.21116 23.7853 -9.02956 5.21116
134 2 25.8347 -9.99255 6.56296 25.8347 -9.99255 6.56296
135 2 25.685 -8.16275 3.6696 25.685 -8.16275 3.6696
136 1 26.6811 -7.72002 5.9944 26.6811 -7.72002 5.9944
137 2 28.4814 -8.79666 7.28483 28.4814 -8.79666 7.28483
138 2 28.7415 -6.72603 4.74597 28.7415 -6.72603 4.74597
139 1 29.5369 -9.07627 5.01355 29.5369 -9.07627 5.01355
140 2 31.4964 -10.2997 6.20831 31.4964 -10.2997 6.20831
141 2 31.5056 -7.90784 3.96847 31.5056 -7.90784 3.96847
142 1 32.4358 -7.93612 6.42375 32.4358 -7.93612 6.42375
143 2 34.5722 -8.91645 7.48845 34.5722 -8.91645 7.48845
144 2 34.2015 -6.81788 5.1311 34.2015 -6.81788 5.1311
145 1 35.3227 -8.94224 5.09299 35.3227 -8.94224 5.09299
146 2 37.24 -10.0242 6.2494 37.24 -10.0242 6.2494
147 2 37.1682 -7.87671 3.85442 37.1682 -7.87671 3.85442
148 1 38.1757 -7.66314 6.17739 38.1757 -7.66314 6.17739
149 2 40.0389 -8.7578 7.43719 40.0389 -8.7578 7.43719
150 2 40.0243 -6.73083 4.90696 40.0243 -6.73083 4.90696
151 1 40.9624 -9.10352 5.20998 40.9624 -9.10352 5.20998
152 2 43.0786 -10.0627 6.18598 43.0786 -10.0627 6.18598
153 2 42.6329 -7.7791 3.95247 42.6329 -7.7791 3.95247
154 1 43.8811 -7.72988 6.16522 43.8811 -7.72988 6.16522
155 2 45.7865 -8.70105 7.47081 45.7865 -8.70105 7.47081
156 2 45.6446 -6.45757 5.02989 45.6446 -6.45757 5.02989
157 1 46.6244 -8.82214 5.00629 46.6244 -8.82214 5.00629
158 2 48.5076 -10.0303 6.04304 48.5076 -10.0303 6.04304
159 2 48.5753 -7.76745 3.77807 48.5753 -7.76745 3.77807
160 1 49.4905 -7.7386 6.14426 49.4905 -7.7386 6.14426
161 2 51.3223 -8.73214 7.41845 51.3223 -8.73214 7.41845
162 2 51.3408 -6.73549 4.78632 51.3408 -6.73549 4.78632
163 1 0.914766 -6.39979 7.15127 0.914766 -6.39979 7.15127
164 2 2.7529 -7.43055 8.52513 2.7529 -7.43055 8.52513
165 2 2.86764 -5.44482 5.89236 2.86764 -5.44482 5.89236
166 1 3.82253 -5.20045 8.23841 3.82253 -5.20045 8.23841
167 2 5.65934 -6.20335 9.55061 5.65934 -6.20335 9.55061
168 2 5.76344 -4.11005 7.03187 5.76344 -4.11005 7.03187
169 1 6.67805 -6.50373 7.22077 6.67805 -6.50373 7.22077
170 2 8.36067 -7.60113 8.64495 8.36067 -7.60113 8.64495
171 2 8.88471 -5.7334 6.15453 8.88471 -5.7334 6.15453
172 1 9.49346 -5.37696 8.51395 9.49346 -5.37696 8.51395
173 2 11.4311 -6.4119 9.83084 11.4311 -6.4119 9.83084
174 2 11.4592 -4.24277 7.33419 11.4592 -4.24277 7.33419
175 1 12.4027 -6.66315 7.43543 12.4027 -6.66315 7.43543
176 2 14.2887 -7.68826 8.74225 14.2887 -7.68826 8.74225
177 2 14.3005 -5.58082 6.19294 14.3005 -5.58082 6.19294
178 1 15.2169 -5.35663 8.4674 15.2169 -5.35663 8.4674
179 2 17.336 -6.13533 9.60375 17.336 -6.13533 9.60375
180 2 16.9675 -4.19028 7.0401 16.9675 -4.19028 7.0401
181 1 18.0953 -6.42074 7.19966 18.0953 -6.42074 7.19966
182 2 20.1089 -7.29621 8.41194 20.1089 -7.29621 8.41194
183 2 19.8968 -5.38065 5.74845 19.8968 -5.38065 5.74845
184 1 21.0183 -5.02041 8.00938 21.0183 -5.02041 8.00938
185 2 22.8805 -6.09222 9.27677 22.8805 -6.09222 9.27677
186 2 22.9115 -3.97212 6.77652 22.9115 -3.97212 6.77652
187 1 23.7796 -6.29815 6.99034 23.7796 -6.29815 6.99034
188 2 25.6701 -7.39541 8.36999 25.6701 -7.39541 8.36999
189 2 25.7244 -5.27794 5.81485 25.7244 -5.27794 5.81485
190 1 26.6556 -5.0756 8.07618 26.6556 -5.0756 8.07618
191 2 28.3961 -6.29752 9.39223 28.3961 -6.29752 9.39223
192 2 28.7253 -4.22161 6.88919 28.7253 -4.22161 6.88919
193 1 29.5279 -6.48537 7.10145 29.5279 -6.48537 7.10145
194 2 31.3291 -7.51472 8.61359 31.3291 -7.51472 8.61359
195 2 31.6136 -5.69076 5.98542 31.6136 -5.69076 5.98542
196 1 32.3789 -5.2213 8.35809 32.3789 -5.2213 8.35809
197 2 34.2864 -6.39656 9.53806 34.2864 -6.39656 9.53806
198 2 34.2676 -4.1868 7.04073 34.2676 -4.1868 7.04073
199 1 35.2649 -6.59229 7.34238 35.2649 -6.59229 7.34238
200 2 37.0911 -7.52578 8.53827 37.0911 -7.52578 8.53827
201 2 37.1182 -5.37987 6.07193 37.1182 -5.37987 6.07193
202 1 38.1446 -5.20527 8.44657 38.1446 -5.20527 8.44657
203 2 40.0863 -6.2343 9.59104 40.0863 -6.2343 9.59104
204 2 39.9149 -4.1401 7.18396 39.9149 -4.1401 7.18396
205 1 40.9608 -6.45219 7.1729 40.9608 -6.45219 7.1729
206 2 42.8073 -7.56965 8.42124 42.8073 -7.56965 8.42124
207 2 42.9334 -5.37646 6.0752 42.9334 -5.37646 6.0752
208 1 43.8805 -5.24124 8.47566 43.8805 -5.24124 8.47566
209 2 45.7633 -6.39862 9.59282 45.7633 -6.39862 9.59282
210 2 45.7547 -4.13876 7.25813 45.7547 -4.13876 7.25813
211 1 46.6788 -6.41137 7.33033 46.6788 -6.41137 7.33033
212 2 48.6455 -7.42327 8.55987 48.6455 -7.42327 8.55987
213 2 48.6301 -5.32168 6.05841 48.6301 -5.32168 6.05841
214 1 49.5943 -5.15304 8.36695 49.5943 -5.15304 8.36695
215 2 51.4202 -6.29844 9.60114 51.4202 -6.29844 9.60114
216 2 51.4264 -4.0345 7.14882 51.4264 -4.0345 7.14882
217 1 1.02944 -3.9736 9.43016 1.02944 -3.9736 9.43016
218 2 2.88472 -4.98613 -9.43894 2.88472 -4.98613 10.5611
219 2 2.89299 -2.83061 8.16321 2.89299 -2.83061 8.16321
220 1 3.91053 -2.6842 -9.60087 3.91053 -2.6842 10.3991
221 2 5.59581 -3.73244 -8.27953 5.59581 -3.73244 11.7205
222 2 5.76549 -1.76182 9.1225 5.76549 -1.76182 9.1225
223 1 6.66035 -4.06519 9.32383 6.66035 -4.06519 9.32383
224 2 8.58819 -4.88034 -9.2135 8.58819 -4.88034 10.7865
225 2 8.46691 -3.116 8.04254 8.46691 -3.116 8.04254
226 1 9.48706 -2.62557 -9.6899 9.48706 -2.62557 10.3101
227 2 11.1555 -3.39434 -8.11044 11.1555 -3.39434 11.8896
228 2 11.3707 -1.83414 8.93547 11.3707 -1.83414 8.93547
229 1 12.4153 -4.13978 9.70781 12.4153 -4.13978 9.70781
230 2 14.5762 -4.84641 -9.10446 14.5762 -4.84641 10.8955
231 2 14.1701 -3.09857 8.12735 14.1701 -3.09857 8.12735
232 1 15.3089 -2.55047 -9.68143 15.3089 -2.55047 10.3186
233 2 17.3612 -3.40393 -8.51687 17.3612 -3.40393 11.4831
234 2 17.0619 -1.51821 8.85435 17.0619 -1.51821 8.85435
235 1 18.1515 -3.7925 9.14601 18.1515 -3.7925 9.14601
236 2 20.0467 -4.65617 -9.67785 20.0467 -4.65617 10.3221
237 2 19.9289 -2.74292 7.6709 19.9289 -2.74292 7.6709
238 1 20.9061 -2.36282 9.89341 20.9061 -2.36282 9.89341
239 2 22.893 -3.28961 -8.72132 22.893 -3.28961 11.2787
240 2 22.9474 -1.52196 8.537 22.9474 -1.52196 8.537
241 1 23.8301 -3.80538 9.0295 23.8301 -3.80538 9.0295
242 2 25.6245 -4.93442 -9.69276 25.6245 -4.93442 10.3072
243 2 25.7273 -2.75576 7.94056 25.7273 -2.75576 7.94056
244 1 26.5496 -2.63969 -9.696 26.5496 -2.63969 10.304
245 2 28.3424 -3.74867 -8.35518 28.3424 -3.74867 11.6448
246 2 28.5981 -1.66784 9.2239 28.5981 -1.66784 9.2239
247 1 29.5269 -4.09528 9.41743 29.5269 -4.09528 9.41743
248 2 31.4825 -5.16342 -9.34304 31.4825 -5.16342 10.657
249 2 31.2682 -3.05118 8.13429 31.2682 -3.05118 8.13429
250 1 32.3556 -2.70712 -9.63385 32.3556 -2.70712 10.3662
251 2 34.2116 -3.83834 -8.42004 34.2116 -3.83834 11.58
252 2 34.4203 -1.63049 9.15629 34.4203 -1.63049 9.15629
253 1 35.2518 -4.00233 9.3366 35.2518 -4.00233 9.3366
254 2 37.1314 -5.07258 -9.28807 37.1314 -5.07258 10.7119
255 2 37.2591 -2.97597 8.20116 37.2591 -2.97597 8.20116
256 1 38.0544 -2.7772 -9.42409 38.0544 -2.7772 10.5759
257 2 39.9245 -4.00926 -8.25111 39.9245 -4.00926 11.7489
258 2 41.6606 -1.91351 -9.16556 41.6606 -1.91351 10.8344
259 1 40.9952 -3.93175 9.43972 40.9952 -3.93175 9.43972
260 2 42.9123 -4.99273 -9.2199 42.9123 -4.99273 10.7801
261 2 43.0788 -2.87503 8.23258 43.0788 -2.87503 8.23258
262 1 43.9367 -2.73033 -9.42467 43.9367 -2.73033 10.5753
263 2 45.9148 -3.57659 -8.13099 45.9148 -3.57659 11.869
264 2 45.8408 -1.79783 9.16836 45.8408 -1.79783 9.16836
265 1 46.7438 -4.05854 9.60617 46.7438 -4.05854 9.60617
266 2 48.843 -4.91431 -9.29579 48.843 -4.91431 10.7042
267 2 48.4924 -2.99639 8.07154 48.4924 -2.99639 8.07154
268 1 49.6413 -2.62585 -9.66395 49.6413 -2.62585 10.3361
269 2 51.4913 -3.56832 -8.33582 51.4913 -3.56832 11.6642
270 2 51.6176 -1.6569 9.052 51.6176 -1.6569 9.052
271 1 1.04019 -1.24227 -8.64344 1.04019 -1.24227 11.3566
272 2 2.92086 -2.24266 -7.30879 2.92086 -2.24266 12.6912
273 2 2.93018 -0.454741 -10.0194 2.93018 -0.454741 9.98062
274 1 3.77939 0.0763033 -7.75546 3.77939 0.0763033 12.2445
275 2 5.64911 -0.874477 -6.37636 5.64911 -0.874477 13.6236
276 2 5.66478 0.849547 -9.06065 5.66478 0.849547 10.9393
277 1 6.61723 -1.43347 -8.53197 6.61723 -1.43347 11.468
278 2 8.56163 -2.26051 -7.29242 8.56163 -2.26051 12.7076
279 2 8.44552 -0.299004 -9.89487 8.44552 -0.299004 10.1051
280 1 9.41192 0.0464005 -7.61855 9.41192 0.0464005 12.3814
281 2 11.4926 -0.816552 -6.51111 11.4926 -0.816552 13.4889
282 2 11.1737 0.998936 -9.16953 11.1737 0.998936 10.8305
283 1 12.3144 -1.2088 -8.82004 12.3144 -1.2088 11.18
284 2 14.1409 -2.41722 -7.51248 14.1409 -2.41722 12.4875
285 2 14.3275 -0.269117 9.99854 14.3275 -0.269117 9.99854
286 1 15.1571 -0.0385825 -7.68997 15.1571 -0.0385825 12.31
287 2 17.2738 -1.02152 -6.5581 17.2738 -1.02152 13.4419
288 2 16.9948 1.24233 -8.87331 16.9948 1.24233 11.1267
289 1 18.1179 -1.01112 -8.92929 18.1179 -1.01112 11.0707
290 2 20.1248 -1.87279 -7.77954 20.1248 -1.87279 12.2205
291 2 19.9049 -0.10482 9.49436 19.9049 -0.10482 9.49436
292 1 20.962 0.392794 -8.28367 20.962 0.392794 11.7163
293 2 22.8471 -0.261034 -6.83537 22.8471 -0.261034 13.1646
294 2 22.7779 1.2427 -9.75558 22.7779 1.2427 10.2444
295 1 23.7818 -0.958895 -9.04869 23.7818 -0.958895 10.9513
296 2 25.2808 -2.22637 -7.63966 25.2808 -2.22637 12.3603
297 2 25.8485 -0.227727 9.81148 25.8485 -0.227727 9.81148
298 1 26.5953 0.0195333 -7.75914 26.5953 0.0195333 12.2409
299 2 28.3926 -1.12315 -6.32659 28.3926 -1.12315 13.6734
300 2 28.6456 0.851937 -8.86044 28.6456 0.851937 11.1396
301 1 29.4697 -1.46508 -8.53627 29.4697 -1.46508 11.4637
302 2 31.1653 -2.81731 -7.32795 31.1653 -2.81731 12.672
303 2 31.5266 -0.367819 -9.62412 31.5266 -0.367819 10.3759
304 1 32.2454 -0.54376 -7.19402 32.2454 -0.54376 12.806
305 2 34.0256 -1.84069 -6.19476 34.0256 -1.84069 13.8052
306 2 34.4707 0.593692 -7.34615 34.4707 0.593692 12.6538
307 1 35.2229 -1.51674 -8.45927 35.2229 -1.51674 11.5407
308 2 36.8438 -2.8945 -7.19822 36.8438 -2.8945 12.8018
309 2 37.3521 -0.385178 -8.94833 37.3521 -0.385178 11.0517
310 1 38.5494 35.7668 5.37653 38.5494 35.7668 -14.6235
311 2 39.434 33.4494 5.05276 39.434 33.4494 -14.9472
312 2 40.5715 36.8802 4.57097 40.5715 36.8802 -15.429
313 1 41.525 34.4895 4.3965 41.525 34.4895 -15.6035
314 2 41.605 34.0476 6.7941 41.605 34.0476 -13.2059
315 2 43.3636 32.7875 4.93583 43.3636 32.7875 -15.0642
316 1 44.0543 34.4622 6.56791 44.0543 34.4622 -13.4321
317 2 46.2544 33.4916 7.35718 46.2544 33.4916 -12.6428
318 2 45.696 34.5961 4.71576 45.696 34.5961 -15.2842
319 1 46.7839 -1.25753 -8.56736 46.7839 -1.25753 11.4326
320 2 48.7226 -2.41829 -7.46316 48.7226 -2.41829 12.5368
321 2 48.5795 -0.363124 10.05 48.5795 -0.363124 10.05
322 1 49.6167 -0.0134883 -7.69236 49.6167 -0.0134883 12.3076
323 2 51.5847 -0.778442 -6.29114 51.5847 -0.778442 13.7089
324 2 51.3892 0.922109 -9.12914 51.3892 0.922109 10.8709
325 1 52.239 1.55988 -6.7548 0.828269 1.55988 13.2452
326 2 2.81115 0.59716 -5.48418 2.81115 0.59716 14.5158
327 2 2.68729 2.33208 -8.23124 2.68729 2.33208 11.7688
328 1 3.61391 2.97036 -6.05889 3.61391 2.97036 13.9411
329 2 5.55807 2.13164 -4.7418 5.55807 2.13164 15.2582
330 2 5.5778 3.70646 -7.58282 5.5778 3.70646 12.4172
331 1 6.57586 1.44155 -6.84536 6.57586 1.44155 13.1546
332 2 8.30296 0.376109 -5.25422 8.30296 0.376109 14.7458
333 2 8.69189 2.39292 -7.89005 8.69189 2.39292 12.11
334 1 9.43568 2.62504 -5.45507 9.43568 2.62504 14.5449
335 2 11.6422 1.77846 -4.54983 11.6422 1.77846 15.4502
336 2 10.9761 3.80325 -7.11775 10.9761 3.80325 12.8823
337 1 12.2807 1.57397 -7.00849 12.2807 1.57397 12.9915
338 2 14.0609 0.693945 -5.46994 14.0609 0.693945 14.5301
339 2 14.2596 2.32038 -8.37033 14.2596 2.32038 11.6297
340 1 15.1002 2.86247 -6.03572 15.1002 2.86247 13.9643
341 2 16.5929 1.72454 -4.39695 16.5929 1.72454 15.6031
342 2 17.2115 3.76611 -6.93539 17.2115 3.76611 13.0646
343 1 18.0141 1.33615 -6.53769 18.0141 1.33615 13.4623
344 2 20.383 0.418606 -5.88368 20.383 0.418606 14.1163
345 2 19.5355 2.52225 -8.21239 19.5355 2.52225 11.7876
346 1 20.8 3.0846 -6.10726 20.8 3.0846 13.8927
347 2 22.8749 2.15083 -5.27131 22.8749 2.15083 14.7287
348 2 22.3925 4.25065 -7.57451 22.3925 4.25065 12.4255
349 1 23.6915 2.13888 -7.54999 23.6915 2.13888 12.45
350 2 25.2539 0.888233 -5.76277 25.2539 0.888233 14.2372
351 2 26.0988 2.36843 -8.58971 26.0988 2.36843 11.4103
352 1 26.6202 2.96085 -6.04185 26.6202 2.96085 13.9582
353 2 28.1299 1.62683 -4.60324 28.1299 1.62683 15.3968
354 2 28.7527 3.48482 -7.11677 28.7527 3.48482 12.8832
355 1 29.4093 1.10386 -6.54185 29.4093 1.10386 13.4581
356 2 31.2877 0.333837 -5.06245 31.2877 0.333837 14.9376
357 2 31.6219 1.9029 -7.50574 31.6219 1.9029 12.4943
358 1 33.0789 38.356 7.56604 33.0789 38.356 -12.434
359 2 36.4088 37.0862 8.80732 36.4088 37.0862 -11.1927
360 2 34.9376 39.3256 6.53745 34.9376 39.3256 -13.4626
361 1 35.7056 36.9877 6.48167 35.7056 36.9877 -13.5183
362 2 39.2706 35.4937 7.66909 39.2706 35.4937 -12.3309
363 2 37.7121 38.0819 5.62518 37.7121 38.0819 -14.3748
364 1 38.6398 37.9438 7.99097 38.6398 37.9438 -12.009
365 2 40.6856 37.1359 9.33416 40.6856 37.1359 -10.6658
366 2 40.5275 38.9354 6.49374 40.5275 38.9354 -13.5063
367 1 41.4043 36.4579 6.8977 41.4043 36.4579 -13.1023
368 2 43.2894 35.656 8.59887 43.2894 35.656 -11.4011
369 2 43.3609 36.385 5.23339 43.3609 36.385 -14.7666
370 1 44.5577 37.5396 7.4916 44.5577 37.5396 -12.5084
371 2 46.5016 36.5323 8.78174 46.5016 36.5323 -11.2183
372 2 46.3737 37.9317 5.84501 46.3737 37.9317 -14.155
373 1 47.1482 35.6384 6.5206 47.1482 35.6384 -13.4794
374 2 48.8304 34.7696 8.19248 48.8304 34.7696 -11.8075
375 2 49.6671 38.9038 6.45714 49.6671 38.9038 -13.5429
376 1 50.2197 36.6235 7.16811 50.2197 36.6235 -12.8319
377 2 48.9978 36.2643 5.01337 48.9978 36.2643 -14.9866
378 2 52.1652 37.1578 5.76922 52.1652 37.1578 -14.2308
379 1 50.7998 39.5056 8.67192 -0.61099 39.5056 -11.3281
380 2 1.15266 39.6503 -9.38715 1.15266 39.6503 -9.38715
381 2 1.44539 39.6886 7.07324 1.44539 39.6886 -12.9268
382 1 2.87201 40.9057 9.11438 2.87201 40.9057 -10.8856
383 2 4.84434 40.2067 -9.3171 4.84434 40.2067 -9.3171
384 2 3.21054 38.5059 9.02465 3.21054 38.5059 -10.9754
385 1 6.43672 4.52991 -5.30504 6.43672 4.52991 14.695
386 2 7.88119 3.6528 -3.581 7.88119 3.6528 16.419
387 2 8.63132 4.85083 -6.44654 8.63132 4.85083 13.5535
388 1 9.25013 5.71649 -4.16039 9.25013 5.71649 15.8396
389 2 10.4821 3.77516 -3.33332 10.4821 3.77516 16.6667
390 2 11.084 6.35804 -5.73271 11.084 6.35804 14.2673
391 1 12.2453 4.30806 -5.03987 12.2453 4.30806 14.9601
392 2 14.9926 4.34227 -4.12734 14.9926 4.34227 15.8727
393 2 13.8102 4.91314 -6.92068 13.8102 4.91314 13.0793
394 1 15.2336 41.1917 8.31389 15.2336 41.1917 -11.6861
395 2 17.0383 40.4737 9.85544 17.0383 40.4737 -10.1446
396 2 16.433 43.2088 7.62605 16.433 43.2088 -12.3739
397 1 17.6867 4.06602 -4.54233 17.6867 4.06602 15.4577
398 2 19.2983 2.14486 -4.23063 19.2983 2.14486 15.7694
399 2 21.3446 4.82063 -4.37314 21.3446 4.82063 15.6269
400 1 21.0438 40.7879 9.04519 21.0438 40.7879 -10.9548
401 2 22.1905 41.0439 -8.82552 22.1905 41.0439 -8.82552
402 2 23.1425 41.7284 7.89458 23.1425 41.7284 -12.1054
403 1 23.5836 4.54877 -5.31017 23.5836 4.54877 14.6898
404 2 25.1863 3.20469 -3.90068 25.1863 3.20469 16.0993
405 2 25.04 4.41909 -7.26325 25.04 4.41909 12.7367
406 1 27.3558 40.9546 8.82433 27.3558 40.9546 -11.1757
407 2 31.0591 39.9237 -9.53177 31.0591 39.9237 -9.53177
408 2 29.3936 42.0623 8.1048 29.3936 42.0623 -11.8952
409 1 30.2948 39.8633 8.17081 30.2948 39.8633 -11.8292
410 2 33.8331 38.7397 9.92594 33.8331 38.7397 -10.0741
411 2 32.369 40.7191 7.26621 32.369 40.7191 -12.7338
412 1 33.1345 41.0351 9.54379 33.1345 41.0351 -10.4562
413 2 35.2265 40.7968 -8.95777 35.2265 40.7968 -8.95777
414 2 35.142 41.7423 7.84626 35.142 41.7423 -12.1537
415 1 35.9753 39.6314 8.90908 35.9753 39.6314 -11.0909
416 2 38.1237 38.9483 -9.7284 38.1237 38.9483 -9.7284
417 2 37.7674 40.244 7.25773 37.7674 40.244 -12.7423
418 1 39.1337 41.071 9.2676 39.1337 41.071 -10.7324
419 2 40.7854 39.9315 -9.2035 40.7854 39.9315 -9.2035
420 2 41.2408 41.5578 7.94809 41.2408 41.5578 -12.0519
421 1 41.8618 39.2659 8.62406 41.8618 39.2659 -11.3759
422 2 44.0544 38.2424 9.79722 44.0544 38.2424 -10.2028
423 2 43.7149 39.8994 6.95642 43.7149 39.8994 -13.0436
424 1 45.057 40.4132 9.03389 45.057 40.4132 -10.9661
425 2 47.0198 39.5048 -9.66944 47.0198 39.5048 -9.66944
426 2 46.9248 41.0512 7.48377 46.9248 41.0512 -12.5162
427 1 47.6293 38.6169 7.96125 47.6293 38.6169 -12.0387
428 2 49.3588 37.4576 9.37103 49.3588 37.4576 -10.629
429 2 0.588106 37.2874 8.71366 51.9989 37.2874 -11.2863
430 1 48.2942 41.4718 9.54286 48.2942 41.4718 -10.4571
431 2 49.8508 40.1667 -8.99286 49.8508 40.1667 -8.99286
432 2 50.3959 41.9343 8.23534 50.3959 41.9343 -11.7647
433 1 51.5078 42.1226 -9.44635 0.0969824 42.1226 -9.44635
434 2 2.52213 41.629 -8.46518 2.52213 41.629 -8.46518
435 2 1.82034 43.0728 8.71263 1.82034 43.0728 -11.2874
436 1 3.41461 43.7644 -9.42984 3.41461 43.7644 -9.42984
437 2 5.3155 42.9525 -8.05726 5.3155 42.9525 -8.05726
438 2 5.28766 44.453 9.06635 5.28766 44.453 -10.9337
439 1 6.15236 42.1668 9.78665 6.15236 42.1668 -10.2133
440 2 8.21574 41.6057 -8.71922 8.21574 41.6057 -8.71922
441 2 10.0568 41.7437 8.77188 10.0568 41.7437 -11.2281
442 1 9.26346 43.7127 -9.79095 9.26346 43.7127 -9.79095
443 2 11.2969 43.0761 -8.24668 11.2969 43.0761 -8.24668
444 2 11.2778 44.5668 8.90951 11.2778 44.5668 -11.0905
445 1 12.2517 42.3973 9.61423 12.2517 42.3973 -10.3858
446 2 14.5266 41.8386 -9.39638 14.5266 41.8386 -9.39638
447 2 13.701 43.2228 7.8735 13.701 43.2228 -12.1265
448 1 15.3611 44.1586 9.81297 15.3611 44.1586 -10.187
449 2 17.0302 42.9725 -8.58273 17.0302 42.9725 -8.58273
450 2 17.854 45.0141 9.04402 17.854 45.0141 -10.956
451 1 18.3162 42.4991 9.2496 18.3162 42.4991 -10.7504
452 2 19.5094 41.317 -8.85484 19.5094 41.317 -8.85484
453 2 20.7121 43.1659 8.66736 20.7121 43.1659 -11.3326
454 1 21.1706 43.4117 -8.8598 21.1706 43.4117 -8.8598
455 2 23.6119 42.8882 -7.5684 23.6119 42.8882 -7.5684
456 2 23.0392 44.2854 9.53741 23.0392 44.2854 -10.4626
457 1 24.2095 42.1026 10.1148 24.2095 42.1026 -9.8852
458 2 27.9068 41.159 -8.86826 27.9068 41.159 -8.86826
459 2 26.3382 43.1959 8.79583 26.3382 43.1959 -11.2042
460 1 27.2581 43.6653 -8.97925 27.2581 43.6653 -8.97925
461 2 29.1812 43.1658 -7.46984 29.1812 43.1658 -7.46984
462 2 29.1407 44.3841 9.6054 29.1407 44.3841 -10.3946
463 1 30.1603 42.2668 -9.5297 30.1603 42.2668 -9.5297
464 2 32.2645 41.9426 -8.16018 32.2645 41.9426 -8.16018
465 2 31.8433 43.1546 8.86028 31.8433 43.1546 -11.1397
466 1 33.0648 44.045 -9.15142 33.0648 44.045 -9.15142
467 2 35.1624 43.6279 -7.89752 35.1624 43.6279 -7.89752
468 2 34.7922 44.6963 9.03427 34.7922 44.6963 -10.9657
469 1 36.171 42.826 -10.0429 36.171 42.826 -10.0429
470 2 38.2763 42.2456 -8.59944 38.2763 42.2456 -8.59944
471 2 38.1601 43.2923 8.2898 38.1601 43.2923 -11.7102
472 1 39.3922 44.3239 -9.63012 39.3922 44.3239 -9.63012
473 2 41.4428 43.3395 -7.96587 41.4428 43.3395 -7.96587
474 2 41.5187 44.3296 8.82895 41.5187 44.3296 -11.171
475 1 42.2784 41.9809 -9.82799 42.2784 41.9809 -9.82799
476 2 44.3823 40.769 -8.62023 44.3823 40.769 -8.62023
477 2 44.1424 43.0721 8.98638 44.1424 43.0721 -11.0136
478 1 41.29 47.0267 8.98665 41.29 47.0267 -11.0133
479 2 44.782 44.534 -7.48058 44.782 44.534 -7.48058
480 2 44.0789 46.3198 9.12011 44.0789 46.3198 -10.8799
481 1 45.6656 42.7786 -9.04461 45.6656 42.7786 -9.04461
482 2 47.8828 41.9446 -8.06218 47.8828 41.9446 -8.06218
483 2 47.0119 43.8994 9.27749 47.0119 43.8994 -10.7225
484 1 48.8482 44.0849 -8.92311 48.8482 44.0849 -8.92311
485 2 50.7914 43.5242 -7.39434 50.7914 43.5242 -7.39434
486 2 50.8668 44.4649 9.52278 50.8668 44.4649 -10.4772
487 1 51.949 45.4016 -8.56919 0.538182 45.4016 -8.56919
488 2 2.63454 44.5741 -7.16392 2.63454 44.5741 -7.16392
489 2 2.569 46.074 9.9108 2.569 46.074 -10.0892
490 1 3.54211 46.7634 -7.9418 3.54211 46.7634 -7.9418
491 2 5.48038 46.0159 -6.56303 5.48038 46.0159 -6.56303
492 2 5.53673 47.3945 -9.42157 5.53673 47.3945 -9.42157
493 1 6.35174 45.1184 -8.7927 6.35174 45.1184 -8.7927
494 2 8.40436 44.2654 -7.4503 8.40436 44.2654 -7.4503
495 2 8.27162 45.9636 9.76276 8.27162 45.9636 -10.2372
496 1 9.46912 46.5789 -8.01356 9.46912 46.5789 -8.01356
497 2 11.511 45.8636 -6.56905 11.511 45.8636 -6.56905
498 2 11.3522 47.4263 -9.45147 11.3522 47.4263 -9.45147
499 1 12.3416 45.1832 -8.78964 12.3416 45.1832 -8.78964
500 2 14.566 44.4245 -7.68632 14.566 44.4245 -7.68632
501 2 14.0434 46.3388 9.71153 14.0434 46.3388 -10.2885
502 1 15.3297 46.7225 -8.1337 15.3297 46.7225 -8.1337
503 2 17.0171 45.8979 -6.51146 17.0171 45.8979 -6.51146
504 2 17.3425 47.3998 -9.31801 17.3425 47.3998 -9.31801
505 1 18.309 45.1184 -8.52427 18.309 45.1184 -8.52427
506 2 19.9992 44.2155 -6.76656 19.9992 44.2155 -6.76656
507 2 20.3565 45.7735 -9.74387 20.3565 45.7735 -9.74387
508 1 21.2297 46.44 -7.48864 21.2297 46.44 -7.48864
509 2 23.1955 45.4587 -6.20819 23.1955 45.4587 -6.20819
510 2 23.1886 47.3585 -8.84992 23.1886 47.3585 -8.84992
511 1 24.2322 45.1112 -8.40245 24.2322 45.1112 -8.40245
512 2 26.047 44.1819 -6.84835 26.047 44.1819 -6.84835
513 2 26.2351 46.006 -9.54292 26.2351 46.006 -9.54292
514 1 26.9735 46.5423 -7.25169 26.9735 46.5423 -7.25169
515 2 29.1188 45.9617 -6.03571 29.1188 45.9617 -6.03571
516 2 28.7997 47.3266 -8.94475 28.7997 47.3266 -8.94475
517 1 29.9586 45.2693 -8.35265 29.9586 45.2693 -8.35265
518 2 32.0495 44.8365 -6.91506 32.0495 44.8365 -6.91506
519 2 31.7442 46.0655 -9.96818 31.7442 46.0655 -9.96818
520 1 32.7412 46.9931 -7.79451 32.7412 46.9931 -7.79451
521 2 35.0071 46.5252 -6.66117 35.0071 46.5252 -6.66117
522 2 34.2083 47.8967 -9.48179 34.2083 47.8967 -9.48179
523 1 35.8493 45.8369 -8.95616 35.8493 45.8369 -8.95616
524 2 38.0289 45.5734 -7.70674 38.0289 45.5734 -7.70674
525 2 36.5572 47.4251 9.26201 36.5572 47.4251 -10.738
526 1 38.4002 47.7136 -9.17944 38.4002 47.7136 -9.17944
527 2 41.0642 46.5522 -8.72054 41.0642 46.5522 -8.72054
528 2 38.9774 46.2538 8.6763 38.9774 46.2538 -11.3237
529 1 43.0321 44.8255 -9.28654 43.0321 44.8255 -9.28654
530 2 39.4937 48.0722 -7.02367 39.4937 48.0722 -7.02367
531 2 39.9115 49.1991 9.43657 39.9115 49.1991 -10.5634
532 1 43.6924 47.8838 -9.07649 43.6924 47.8838 -9.07649
533 2 45.1613 47.2834 -7.20901 45.1613 47.2834 -7.20901
534 2 45.8776 48.206 9.75014 45.8776 48.206 -10.2499
535 1 46.2897 46.0024 -9.12994 46.2897 46.0024 -9.12994
536 2 47.899 45.5069 -7.10643 47.899 45.5069 -7.10643
537 2 48.5631 46.2564 9.76417 48.5631 46.2564 -10.2358
538 1 49.2592 47.3068 -8.10733 49.2592 47.3068 -8.10733
539 2 51.1296 46.6484 -6.51859 51.1296 46.6484 -6.51859