ITEM: TIMESTEP
1154000
ITEM: NUMBER OF ATOMS
810
ITEM: BOX BOUNDS pp pp pp
8.0341777045796159e-01 5.2214187229542503e+01
-2.0448239701336628e+00 5.3061038970132529e+01
-1.0000000000000000e+01 1.0000000000000000e+01
ITEM: ATOMS id type x y z xu yu zu
1 1 1.03752 -1.88833 -0.487576 1.03752 -1.88833 -0.487576
2 2 2.87625 -1.79493 1.17719 2.87625 -1.79493 1.17719
3 2 3.00442 -1.92344 -1.98328 3.00442 -1.92344 -1.98328
4 1 3.75764 0.102168 -0.517069 3.75764 0.102168 -0.517069
5 2 5.48505 0.131538 1.34472 5.48505 0.131538 1.34472
6 2 5.89551 0.196578 -1.82243 5.89551 0.196578 -1.82243
7 1 6.64643 -1.8344 -0.280806 6.64643 -1.8344 -0.280806
8 2 8.58113 -1.80546 1.33195 8.58113 -1.80546 1.33195
9 2 8.58323 -1.75253 -1.90712 8.58323 -1.75253 -1.90712
10 1 9.56332 0.131243 -0.256976 9.56332 0.131243 -0.256976
11 2 11.3441 0.00968662 1.43731 11.3441 0.00968662 1.43731
12 2 11.5571 0.172519 -1.7704 11.5571 0.172519 -1.7704
13 1 12.3417 -1.7789 -0.185133 12.3417 -1.7789 -0.185133
14 2 14.1488 -1.91882 1.53051 14.1488 -1.91882 1.53051
15 2 14.2859 -1.71818 -1.75325 14.2859 -1.71818 -1.75325
16 1 15.2435 -0.0122491 -0.106855 15.2435 -0.0122491 -0.106855
17 2 17.1962 -0.12941 1.33628 17.1962 -0.12941 1.33628
18 2 17.1431 0.0208463 -1.86724 17.1431 0.0208463 -1.86724
19 1 18.0154 -1.80235 -0.400979 18.0154 -1.80235 -0.400979
20 2 19.9799 -1.87478 1.34284 19.9799 -1.87478 1.34284
21 2 20.0605 -1.74723 -1.88217 20.0605 -1.74723 -1.88217
22 1 20.9902 0.0918421 -0.219421 20.9902 0.0918421 -0.219421
23 2 22.8704 0.20559 1.4928 22.8704 0.20559 1.4928
24 2 22.8873 0.0116267 -1.82824 22.8873 0.0116267 -1.82824
25 1 23.8448 -1.66705 -0.187887 23.8448 -1.66705 -0.187887
26 2 25.8562 -1.81575 1.2743 25.8562 -1.81575 1.2743
27 2 25.7386 -1.68441 -1.88151 25.7386 -1.68441 -1.88151
28 1 26.6944 0.0336849 -0.321237 26.6944 0.0336849 -0.321237
29 2 28.7179 -0.0889494 1.18596 28.7179 -0.0889494 1.18596
30 2 28.5345 0.131218 -2.08207 28.5345 0.131218 -2.08207
31 1 29.6219 -1.81059 -0.461539 29.6219 -1.81059 -0.461539
32 2 31.6481 -1.8367 1.22683 31.6481 -1.8367 1.22683
33 2 31.711 -1.86578 -1.93369 31.711 -1.86578 -1.93369
34 1 32.4351 -0.0103254 -0.370223 32.4351 -0.0103254 -0.370223
35 2 34.2589 0.179349 1.34182 34.2589 0.179349 1.34182
36 2 34.5471 -0.0904663 -1.78874 34.5471 -0.0904663 -1.78874
37 1 35.3197 -1.799 -0.0444671 35.3197 -1.799 -0.0444671
38 2 37.2015 -1.79755 1.54281 37.2015 -1.79755 1.54281
39 2 37.232 -1.74964 -1.68452 37.232 -1.74964 -1.68452
40 1 38.1327 0.107374 -0.0121569 38.1327 0.107374 -0.0121569
41 2 40.0892 0.22189 1.75698 40.0892 0.22189 1.75698
42 2 40.2229 -0.0563704 -1.56216 40.2229 -0.0563704 -1.56216
43 1 41.0363 -1.86576 0.298659 41.0363 -1.86576 0.298659
44 2 43.1466 -1.81471 1.62851 43.1466 -1.81471 1.62851
45 2 42.766 -1.91217 -1.65372 42.766 -1.91217 -1.65372
46 1 43.7968 -0.0463641 -0.185388 43.7968 -0.0463641 -0.185388
47 2 45.9137 -0.107923 1.38774 45.9137 -0.107923 1.38774
48 2 45.7115 0.0558675 -1.87225 45.7115 0.0558675 -1.87225
49 1 46.6843 -1.80617 -0.257861 46.6843 -1.80617 -0.257861
50 2 48.6747 -1.64178 1.34487 48.6747 -1.64178 1.34487
51 2 48.7279 -2.01946 -1.88877 48.7279 -2.01946 -1.88877
52 1 49.5901 -0.0313515 -0.443704 49.5901 -0.0313515 -0.443704
53 2 51.5184 -0.136708 1.21912 51.5184 -0.136708 1.21912
54 2 51.593 -0.0216478 -1.9906 51.593 -0.0216478 -1.9906
55 1 0.892832 1.81591 -0.295288 0.892832 1.81591 -0.295288
56 2 2.91893 2.06567 1.15644 2.91893 2.06567 1.15644
57 2 2.68677 1.7874 -2.10069 2.68677 1.7874 -2.10069
58 1 3.75739 3.79775 -0.623787 3.75739 3.79775 -0.623787
59 2 5.49749 3.94433 1.26706 5.49749 3.94433 1.26706
60 2 5.8849 3.81267 -1.92453 5.8849 3.81267 -1.92453
61 1 6.60363 1.94211 -0.104466 6.60363 1.94211 -0.104466
62 2 8.72238 1.93192 1.45731 8.72238 1.93192 1.45731
63 2 8.47836 1.93819 -1.81182 8.47836 1.93819 -1.81182
64 1 9.50901 3.68183 -0.154132 9.50901 3.68183 -0.154132
65 2 11.5069 3.82126 1.4436 11.5069 3.82126 1.4436
66 2 11.4098 3.69381 -1.80838 11.4098 3.69381 -1.80838
67 1 12.4423 1.96498 -0.131705 12.4423 1.96498 -0.131705
68 2 14.271 1.88377 1.53786 14.271 1.88377 1.53786
69 2 14.4169 1.9201 -1.65177 14.4169 1.9201 -1.65177
70 1 15.2196 3.73896 -0.0655942 15.2196 3.73896 -0.0655942
71 2 17.2484 3.63532 1.44591 17.2484 3.63532 1.44591
72 2 17.0847 3.68203 -1.7844 17.0847 3.68203 -1.7844
73 1 18.1636 1.81217 -0.260405 18.1636 1.81217 -0.260405
74 2 20.0248 1.88642 1.29642 20.0248 1.88642 1.29642
75 2 20.0826 1.83633 -1.81017 20.0826 1.83633 -1.81017
76 1 20.9292 3.75149 -0.259006 20.9292 3.75149 -0.259006
77 2 22.787 3.98649 1.52613 22.787 3.98649 1.52613
78 2 22.9714 3.60919 -1.77661 22.9714 3.60919 -1.77661
79 1 23.8248 1.91795 -0.117989 23.8248 1.91795 -0.117989
80 2 25.8582 1.75958 1.43677 25.8582 1.75958 1.43677
81 2 25.7402 2.04802 -1.73602 25.7402 2.04802 -1.73602
82 1 26.6801 3.70792 -0.0707506 26.6801 3.70792 -0.0707506
83 2 28.7216 3.64915 1.35266 28.7216 3.64915 1.35266
84 2 28.6135 3.86106 -1.77941 28.6135 3.86106 -1.77941
85 1 29.5382 1.88477 -0.387846 29.5382 1.88477 -0.387846
86 2 31.3955 1.77909 1.31941 31.3955 1.77909 1.31941
87 2 31.4891 1.91367 -1.95944 31.4891 1.91367 -1.95944
88 1 32.412 3.70088 -0.205663 32.412 3.70088 -0.205663
89 2 34.2772 3.55925 1.39149 34.2772 3.55925 1.39149
90 2 34.3318 3.8237 -1.69467 34.3318 3.8237 -1.69467
91 1 35.2715 1.93261 -0.231616 35.2715 1.93261 -0.231616
92 2 37.01 1.96712 1.65077 37.01 1.96712 1.65077
93 2 37.3322 1.89728 -1.637 37.3322 1.89728 -1.637
94 1 38.092 3.68996 0.119824 38.092 3.68996 0.119824
95 2 40.1031 3.85412 1.62546 40.1031 3.85412 1.62546
96 2 39.9361 3.56469 -1.60231 39.9361 3.56469 -1.60231
97 1 40.998 1.86447 0.0163611 40.998 1.86447 0.0163611
98 2 43.0582 1.92321 1.41415 43.0582 1.92321 1.41415
99 2 42.7494 1.88691 -1.78638 42.7494 1.88691 -1.78638
100 1 43.7677 3.76057 -0.340487 43.7677 3.76057 -0.340487
101 2 45.6984 3.79274 1.28234 45.6984 3.79274 1.28234
102 2 45.7247 3.63145 -2.00008 45.7247 3.63145 -2.00008
103 1 46.6963 1.7495 -0.204874 46.6963 1.7495 -0.204874
104 2 48.6953 1.55257 1.42025 48.6953 1.55257 1.42025
105 2 48.5615 1.98828 -1.87324 48.5615 1.98828 -1.87324
106 1 49.5016 3.58841 -0.0946933 49.5016 3.58841 -0.0946933
107 2 51.4674 3.55185 1.40154 51.4674 3.55185 1.40154
108 2 51.366 3.70001 -1.88352 51.366 3.70001 -1.88352
109 1 0.938736 5.5388 -0.128438 0.938736 5.5388 -0.128438
110 2 2.97642 5.51423 1.24875 2.97642 5.51423 1.24875
111 2 2.73558 5.64407 -1.9907 2.73558 5.64407 -1.9907
112 1 3.81677 7.42661 -0.395834 3.81677 7.42661 -0.395834
113 2 5.60455 7.53585 1.29429 5.60455 7.53585 1.29429
114 2 5.75723 7.3326 -1.97784 5.75723 7.3326 -1.97784
115 1 6.70151 5.60476 -0.267506 6.70151 5.60476 -0.267506
116 2 8.61775 5.58414 1.36837 8.61775 5.58414 1.36837
117 2 8.53986 5.48803 -1.90737 8.53986 5.48803 -1.90737
118 1 9.58438 7.42556 -0.310389 9.58438 7.42556 -0.310389
119 2 11.4229 7.39283 1.45427 11.4229 7.39283 1.45427
120 2 11.6159 7.55707 -1.8017 11.6159 7.55707 -1.8017
121 1 12.3828 5.6183 -0.332822 12.3828 5.6183 -0.332822
122 2 14.1857 5.67737 1.42309 14.1857 5.67737 1.42309
123 2 14.4248 5.53077 -1.81633 14.4248 5.53077 -1.81633
124 1 15.3484 7.49908 -0.226347 15.3484 7.49908 -0.226347
125 2 17.1158 7.31526 1.57541 17.1158 7.31526 1.57541
126 2 17.3984 7.59438 -1.67221 17.3984 7.59438 -1.67221
127 1 18.0727 5.52839 -0.15697 18.0727 5.52839 -0.15697
128 2 19.9167 5.50414 1.47739 19.9167 5.50414 1.47739
129 2 19.935 5.85151 -1.70066 19.935 5.85151 -1.70066
130 1 20.8869 7.45971 -0.0280117 20.8869 7.45971 -0.0280117
131 2 22.8693 7.47175 1.46773 22.8693 7.47175 1.46773
132 2 22.9346 7.43214 -1.68548 22.9346 7.43214 -1.68548
133 1 23.8234 5.61504 -0.186004 23.8234 5.61504 -0.186004
134 2 25.6556 5.57956 1.54146 25.6556 5.57956 1.54146
135 2 25.8339 5.62218 -1.77602 25.8339 5.62218 -1.77602
136 1 26.6877 7.37097 -0.0321108 26.6877 7.37097 -0.0321108
137 2 28.5739 7.33383 1.49377 28.5739 7.33383 1.49377
138 2 28.472 7.70825 -1.68067 28.472 7.70825 -1.68067
139 1 29.5359 5.63104 -0.200733 29.5359 5.63104 -0.200733
140 2 31.5068 5.60955 1.41106 31.5068 5.60955 1.41106
141 2 31.4636 5.52394 -1.89769 31.4636 5.52394 -1.89769
142 1 32.3593 7.49898 -0.230819 32.3593 7.49898 -0.230819
143 2 34.1884 7.44743 1.53796 34.1884 7.44743 1.53796
144 2 34.3477 7.44615 -1.68696 34.3477 7.44615 -1.68696
145 1 35.1451 5.53601 -0.0842041 35.1451 5.53601 -0.0842041
146 2 37.1823 5.54602 1.61787 37.1823 5.54602 1.61787
147 2 37.2602 5.39483 -1.57386 37.2602 5.39483 -1.57386
148 1 37.9891 7.36983 0.066816 37.9891 7.36983 0.066816
149 2 40.1318 7.30591 1.52984 40.1318 7.30591 1.52984
150 2 39.9651 7.35545 -1.65259 39.9651 7.35545 -1.65259
151 1 40.8485 5.52865 -0.133849 40.8485 5.52865 -0.133849
152 2 42.7664 5.48911 1.48269 42.7664 5.48911 1.48269
153 2 42.6194 5.74009 -1.88552 42.6194 5.74009 -1.88552
154 1 43.7815 7.35012 -0.212463 43.7815 7.35012 -0.212463
155 2 45.8645 7.2738 1.19946 45.8645 7.2738 1.19946
156 2 45.6 7.34662 -1.84113 45.6 7.34662 -1.84113
157 1 46.6319 5.45612 -0.514264 46.6319 5.45612 -0.514264
158 2 48.4119 5.43846 1.36179 48.4119 5.43846 1.36179
159 2 48.7527 5.44709 -1.87068 48.7527 5.44709 -1.87068
160 1 49.4604 7.41633 -0.283846 49.4604 7.41633 -0.283846
161 2 51.371 7.43962 1.32215 51.371 7.43962 1.32215
162 2 51.4284 7.27033 -1.86426 51.4284 7.27033 -1.86426
163 1 0.956322 9.224 -0.299856 0.956322 9.224 -0.299856
164 2 2.95391 9.27271 1.33455 2.95391 9.27271 1.33455
165 2 2.7872 9.20111 -2.03661 2.7872 9.20111 -2.03661
166 1 3.76742 10.9982 -0.372742 3.76742 10.9982 -0.372742
167 2 5.70153 10.9695 1.3132 5.70153 10.9695 1.3132
168 2 5.68078 11.1866 -1.99028 5.68078 11.1866 -1.99028
169 1 6.73762 9.263 -0.436454 6.73762 9.263 -0.436454
170 2 8.59876 9.21405 1.30155 8.59876 9.21405 1.30155
171 2 8.75157 9.24918 -1.92297 8.75157 9.24918 -1.92297
172 1 9.57642 11.0063 -0.158654 9.57642 11.0063 -0.158654
173 2 11.4162 10.8312 1.57219 11.4162 10.8312 1.57219
174 2 11.7225 11.1578 -1.56821 11.7225 11.1578 -1.56821
175 1 12.504 9.1825 -0.0182356 12.504 9.1825 -0.0182356
176 2 14.3441 9.10472 1.64385 14.3441 9.10472 1.64385
177 2 14.4582 9.46897 -1.61671 14.4582 9.46897 -1.61671
178 1 15.2325 11.1147 0.282403 15.2325 11.1147 0.282403
179 2 17.2706 11.075 1.83887 17.2706 11.075 1.83887
180 2 17.3313 11.3131 -1.38093 17.3313 11.3131 -1.38093
181 1 18.1433 9.30039 0.193648 18.1433 9.30039 0.193648
182 2 19.9216 9.04562 1.82002 19.9216 9.04562 1.82002
183 2 19.9283 9.49145 -1.40501 19.9283 9.49145 -1.40501
184 1 20.8598 10.9946 0.356027 20.8598 10.9946 0.356027
185 2 23.111 11.0603 1.68245 23.111 11.0603 1.68245
186 2 22.5768 11.1922 -1.49507 22.5768 11.1922 -1.49507
187 1 23.8214 9.3223 -0.112559 23.8214 9.3223 -0.112559
188 2 25.6677 9.05117 1.53696 25.6677 9.05117 1.53696
189 2 25.9 9.35856 -1.5095 25.9 9.35856 -1.5095
190 1 26.6911 11.1009 0.274556 26.6911 11.1009 0.274556
191 2 28.5205 10.8911 1.88974 28.5205 10.8911 1.88974
192 2 28.5096 11.1696 -1.37487 28.5096 11.1696 -1.37487
193 1 29.4975 9.31779 0.00494069 29.4975 9.31779 0.00494069
194 2 31.3992 9.11659 1.54836 31.3992 9.11659 1.54836
195 2 31.4231 9.43507 -1.68081 31.4231 9.43507 -1.68081
196 1 32.3096 11.1112 0.189963 32.3096 11.1112 0.189963
197 2 34.4183 11.0659 1.67663 34.4183 11.0659 1.67663
198 2 34.087 11.0875 -1.59339 34.087 11.0875 -1.59339
199 1 35.1631 9.2578 -0.0303404 35.1631 9.2578 -0.0303404
200 2 37.0863 9.36494 1.57341 37.0863 9.36494 1.57341
201 2 37.1023 9.18498 -1.6499 37.1023 9.18498 -1.6499
202 1 38.0727 11.1277 -0.129287 38.0727 11.1277 -0.129287
203 2 40.0761 10.9246 1.60274 40.0761 10.9246 1.60274
204 2 40.0359 11.2156 -1.62018 40.0359 11.2156 -1.62018
205 1 41.0059 9.17334 -0.155933 41.0059 9.17334 -0.155933
206 2 42.8621 8.99142 1.60651 42.8621 8.99142 1.60651
207 2 42.9884 9.24995 -1.70459 42.9884 9.24995 -1.70459
208 1 43.8054 10.9553 0.158627 43.8054 10.9553 0.158627
209 2 45.9653 10.6934 1.58398 45.9653 10.6934 1.58398
210 2 45.6127 11.3062 -1.56511 45.6127 11.3062 -1.56511
211 1 46.739 9.20195 -0.329088 46.739 9.20195 -0.329088
212 2 48.6092 9.2321 1.36429 48.6092 9.2321 1.36429
213 2 48.6788 9.22742 -1.9205 48.6788 9.22742 -1.9205
214 1 49.4625 11.0183 -0.251522 49.4625 11.0183 -0.251522
215 2 51.3795 10.9816 1.29772 51.3795 10.9816 1.29772
216 2 51.2746 11.0319 -2.0094 51.2746 11.0319 -2.0094
217 1 0.937036 12.849 -0.408987 0.937036 12.849 -0.408987
218 2 2.91268 12.8418 1.18464 2.91268 12.8418 1.18464
219 2 2.85505 12.8906 -1.94334 2.85505 12.8906 -1.94334
220 1 3.85898 14.6648 -0.341506 3.85898 14.6648 -0.341506
221 2 5.66763 14.5543 1.34115 5.66763 14.5543 1.34115
222 2 5.82186 14.5508 -1.89992 5.82186 14.5508 -1.89992
223 1 6.6822 12.8248 -0.253162 6.6822 12.8248 -0.253162
224 2 8.63442 12.8462 1.39523 8.63442 12.8462 1.39523
225 2 8.77597 12.8765 -1.81016 8.77597 12.8765 -1.81016
226 1 9.56051 14.7903 -0.065869 9.56051 14.7903 -0.065869
227 2 11.3173 14.7627 1.69266 11.3173 14.7627 1.69266
228 2 11.6348 14.818 -1.36248 11.6348 14.818 -1.36248
229 1 12.44 12.9281 0.183663 12.44 12.9281 0.183663
230 2 14.4513 13.0639 1.87479 14.4513 13.0639 1.87479
231 2 14.4505 12.9203 -1.27835 14.4505 12.9203 -1.27835
232 1 15.3112 14.8779 0.375529 15.3112 14.8779 0.375529
233 2 17.3711 14.965 1.97093 17.3711 14.965 1.97093
234 2 17.2977 14.7066 -1.24608 17.2977 14.7066 -1.24608
235 1 18.0446 12.9252 0.434176 18.0446 12.9252 0.434176
236 2 20.043 12.8941 2.01426 20.043 12.8941 2.01426
237 2 19.9975 12.9227 -1.15722 19.9975 12.9227 -1.15722
238 1 20.9713 14.722 0.372489 20.9713 14.722 0.372489
239 2 23.1701 14.6622 1.8431 23.1701 14.6622 1.8431
240 2 22.8278 14.8943 -1.40287 22.8278 14.8943 -1.40287
241 1 23.8182 12.8495 -0.0458358 23.8182 12.8495 -0.0458358
242 2 25.5549 12.8697 1.83478 25.5549 12.8697 1.83478
243 2 25.9425 12.9909 -1.29059 25.9425 12.9909 -1.29059
244 1 26.6422 14.7583 0.388631 26.6422 14.7583 0.388631
245 2 28.6153 14.6852 1.97108 28.6153 14.6852 1.97108
246 2 28.5774 14.7385 -1.20234 28.5774 14.7385 -1.20234
247 1 29.429 12.9062 0.378244 29.429 12.9062 0.378244
248 2 31.6554 12.9782 1.86422 31.6554 12.9782 1.86422
249 2 31.1582 12.9197 -1.36707 31.1582 12.9197 -1.36707
250 1 32.3881 14.7568 0.0276519 32.3881 14.7568 0.0276519
251 2 34.3559 14.6915 1.58215 34.3559 14.6915 1.58215
252 2 34.3106 14.6878 -1.65052 34.3106 14.6878 -1.65052
253 1 35.1949 12.8269 -0.051918 35.1949 12.8269 -0.051918
254 2 37.2099 12.8191 1.58756 37.2099 12.8191 1.58756
255 2 37.1903 12.8219 -1.70194 37.1903 12.8219 -1.70194
256 1 38.1077 14.7173 -0.107972 38.1077 14.7173 -0.107972
257 2 39.9517 14.7138 1.5992 39.9517 14.7138 1.5992
258 2 40.1915 14.7094 -1.56814 40.1915 14.7094 -1.56814
259 1 41.0867 12.848 0.129478 41.0867 12.848 0.129478
260 2 43.033 12.8944 1.68468 43.033 12.8944 1.68468
261 2 42.8876 12.8661 -1.48753 42.8876 12.8661 -1.48753
262 1 43.7503 14.7225 0.0137424 43.7503 14.7225 0.0137424
263 2 45.6094 14.6854 1.68928 45.6094 14.6854 1.68928
264 2 45.8169 14.7171 -1.50814 45.8169 14.7171 -1.50814
265 1 46.6053 12.8492 0.184411 46.6053 12.8492 0.184411
266 2 48.8413 12.7554 1.48609 48.8413 12.7554 1.48609
267 2 48.3412 12.816 -1.75962 48.3412 12.816 -1.75962
268 1 49.483 14.627 -0.168712 49.483 14.627 -0.168712
269 2 51.4851 14.4946 1.34557 51.4851 14.4946 1.34557
270 2 51.3362 14.7196 -1.85975 51.3362 14.7196 -1.85975
271 1 0.872387 16.4828 -0.0478739 0.872387 16.4828 -0.0478739
272 2 3.04261 16.418 1.43883 3.04261 16.418 1.43883
273 2 2.67036 16.5589 -1.7339 2.67036 16.5589 -1.7339
274 1 3.81908 18.3416 -0.165288 3.81908 18.3416 -0.165288
275 2 5.75686 18.1866 1.4529 5.75686 18.1866 1.4529
276 2 5.67602 18.4062 -1.74148 5.67602 18.4062 -1.74148
277 1 6.64474 16.5216 -0.172298 6.64474 16.5216 -0.172298
278 2 8.5277 16.7578 1.44686 8.5277 16.7578 1.44686
279 2 8.6825 16.4658 -1.76026 8.6825 16.4658 -1.76026
280 1 9.52437 18.4527 -0.269444 9.52437 18.4527 -0.269444
281 2 11.2926 18.406 1.68818 11.2926 18.406 1.68818
282 2 11.7602 18.2676 -1.51531 11.7602 18.2676 -1.51531
283 1 12.4307 16.5973 0.317127 12.4307 16.5973 0.317127
284 2 14.2384 16.7255 1.96401 14.2384 16.7255 1.96401
285 2 14.3461 16.7112 -1.33342 14.3461 16.7112 -1.33342
286 1 15.3444 18.5213 0.253364 15.3444 18.5213 0.253364
287 2 17.3514 18.4331 1.93184 17.3514 18.4331 1.93184
288 2 17.0511 18.5269 -1.48522 17.0511 18.5269 -1.48522
289 1 18.1337 16.8003 0.260284 18.1337 16.8003 0.260284
290 2 20.0076 16.7458 1.88581 20.0076 16.7458 1.88581
291 2 20.1759 16.535 -1.23349 20.1759 16.535 -1.23349
292 1 21.0304 18.4708 0.308196 21.0304 18.4708 0.308196
293 2 22.8743 18.4242 1.88871 22.8743 18.4242 1.88871
294 2 22.894 18.4596 -1.3273 22.894 18.4596 -1.3273
295 1 23.7279 16.6337 0.23899 23.7279 16.6337 0.23899
296 2 25.6927 16.7462 2.00462 25.6927 16.7462 2.00462
297 2 25.8205 16.4782 -1.21828 25.8205 16.4782 -1.21828
298 1 26.6041 18.5174 0.293379 26.6041 18.5174 0.293379
299 2 28.5933 18.4812 1.94456 28.5933 18.4812 1.94456
300 2 28.594 18.4583 -1.22558 28.594 18.4583 -1.22558
301 1 29.5151 16.5776 0.358414 29.5151 16.5776 0.358414
302 2 31.5886 16.3984 1.83376 31.5886 16.3984 1.83376
303 2 31.2994 16.6086 -1.49771 31.2994 16.6086 -1.49771
304 1 32.4784 18.274 0.145598 32.4784 18.274 0.145598
305 2 34.5573 18.2971 1.69678 34.5573 18.2971 1.69678
306 2 34.2775 18.4457 -1.66446 34.2775 18.4457 -1.66446
307 1 35.2658 16.5224 -0.0816301 35.2658 16.5224 -0.0816301
308 2 37.22 16.5292 1.54732 37.22 16.5292 1.54732
309 2 37.2287 16.6964 -1.72916 37.2287 16.6964 -1.72916
310 1 38.1337 18.3579 -0.0860843 38.1337 18.3579 -0.0860843
311 2 39.949 18.623 1.57889 39.949 18.623 1.57889
312 2 40.1078 18.3774 -1.58852 40.1078 18.3774 -1.58852
313 1 40.8917 16.5788 0.112066 40.8917 16.5788 0.112066
314 2 42.8918 16.5201 1.68372 42.8918 16.5201 1.68372
315 2 42.9251 16.5832 -1.53861 42.9251 16.5832 -1.53861
316 1 43.8177 18.4504 0.122019 43.8177 18.4504 0.122019
317 2 45.9408 18.5661 1.72216 45.9408 18.5661 1.72216
318 2 45.7615 18.3778 -1.52843 45.7615 18.3778 -1.52843
319 1 46.5803 16.5544 0.165071 46.5803 16.5544 0.165071
320 2 48.6565 16.4257 1.61703 48.6565 16.4257 1.61703
321 2 48.3986 16.5522 -1.62679 48.3986 16.5522 -1.62679
322 1 49.4816 18.3658 -0.0411221 49.4816 18.3658 -0.0411221
323 2 51.4495 18.3434 1.54361 51.4495 18.3434 1.54361
324 2 51.3545 18.3387 -1.60013 51.3545 18.3387 -1.60013
325 1 0.921511 20.1913 -0.0627764 0.921511 20.1913 -0.0627764
326 2 2.92361 20.2183 1.38295 2.92361 20.2183 1.38295
327 2 2.84995 20.1465 -1.69324 2.84995 20.1465 -1.69324
328 1 3.7589 22.1162 -0.199411 3.7589 22.1162 -0.199411
329 2 5.70492 21.9746 1.48572 5.70492 21.9746 1.48572
330 2 5.79719 21.9873 -1.77004 5.79719 21.9873 -1.77004
331 1 6.60584 20.2193 -0.101443 6.60584 20.2193 -0.101443
332 2 8.70064 20.344 1.39372 8.70064 20.344 1.39372
333 2 8.43337 20.0548 -1.92735 8.43337 20.0548 -1.92735
334 1 9.52359 22.0465 -0.373675 9.52359 22.0465 -0.373675
335 2 11.3717 22.1362 1.46508 11.3717 22.1362 1.46508
336 2 11.726 22.1818 -1.72953 11.726 22.1818 -1.72953
337 1 12.499 20.3476 0.0205015 12.499 20.3476 0.0205015
338 2 14.1865 20.3721 1.81333 14.1865 20.3721 1.81333
339 2 14.6097 20.352 -1.36105 14.6097 20.352 -1.36105
340 1 15.2492 22.1907 0.305077 15.2492 22.1907 0.305077
341 2 17.1822 22.021 1.90776 17.1822 22.021 1.90776
342 2 17.1503 22.3994 -1.31072 17.1503 22.3994 -1.31072
343 1 18.0971 20.3229 0.184862 18.0971 20.3229 0.184862
344 2 20.0009 20.2196 1.88897 20.0009 20.2196 1.88897
345 2 20.0555 20.3274 -1.3104 20.0555 20.3274 -1.3104
346 1 20.8578 22.1224 0.338072 20.8578 22.1224 0.338072
347 2 22.8882 22.0768 1.94596 22.8882 22.0768 1.94596
348 2 22.8042 22.0841 -1.38902 22.8042 22.0841 -1.38902
349 1 23.7666 20.3502 0.189962 23.7666 20.3502 0.189962
350 2 25.7329 20.563 1.78796 25.7329 20.563 1.78796
351 2 25.7369 20.2656 -1.48408 25.7369 20.2656 -1.48408
352 1 26.7001 22.1244 0.095084 26.7001 22.1244 0.095084
353 2 28.5181 21.9795 1.76638 28.5181 21.9795 1.76638
354 2 28.7114 22.05 -1.45935 28.7114 22.05 -1.45935
355 1 29.5286 20.3078 0.184038 29.5286 20.3078 0.184038
356 2 31.4268 20.2123 1.81789 31.4268 20.2123 1.81789
357 2 31.3959 20.3747 -1.36737 31.3959 20.3747 -1.36737
358 1 32.4366 22.0954 0.31093 32.4366 22.0954 0.31093
359 2 34.7118 22.1041 1.64018 34.7118 22.1041 1.64018
360 2 34.1728 22.0143 -1.51681 34.1728 22.0143 -1.51681
361 1 35.3054 20.2344 0.0818629 35.3054 20.2344 0.0818629
362 2 37.2683 20.2257 1.59219 37.2683 20.2257 1.59219
363 2 37.0873 20.2619 -1.60677 37.0873 20.2619 -1.60677
364 1 38.1255 22.018 -0.165794 38.1255 22.018 -0.165794
365 2 40.0004 22.0172 1.51357 40.0004 22.0172 1.51357
366 2 40.0453 22.0185 -1.71448 40.0453 22.0185 -1.71448
367 1 41.0173 20.2765 -0.0891948 41.0173 20.2765 -0.0891948
368 2 42.8777 20.371 1.64493 42.8777 20.371 1.64493
369 2 43.0261 20.095 -1.67582 43.0261 20.095 -1.67582
370 1 43.9135 22.1368 -0.132402 43.9135 22.1368 -0.132402
371 2 45.771 22.1406 1.50451 45.771 22.1406 1.50451
372 2 45.9431 22.0881 -1.73879 45.9431 22.0881 -1.73879
373 1 46.7564 20.2704 -0.0370214 46.7564 20.2704 -0.0370214
374 2 48.6461 20.1379 1.56827 48.6461 20.1379 1.56827
375 2 48.5815 20.1882 -1.74137 48.5815 20.1882 -1.74137
376 1 49.4584 22.0607 0.0536569 49.4584 22.0607 0.0536569
377 2 51.4044 22.2263 1.48766 51.4044 22.2263 1.48766
378 2 51.3255 21.9438 -1.75878 51.3255 21.9438 -1.75878
379 1 0.87573 23.8705 -0.379591 0.87573 23.8705 -0.379591
380 2 2.80606 23.9619 1.30946 2.80606 23.9619 1.30946
381 2 2.94216 23.8498 -1.88455 2.94216 23.8498 -1.88455
382 1 3.7573 25.7528 -0.401348 3.7573 25.7528 -0.401348
383 2 5.72256 25.7447 1.28471 5.72256 25.7447 1.28471
384 2 5.90395 25.6754 -1.93708 5.90395 25.6754 -1.93708
385 1 6.69505 23.8478 -0.200251 6.69505 23.8478 -0.200251
386 2 8.65285 23.6349 1.39239 8.65285 23.6349 1.39239
387 2 8.538 24.0028 -1.84949 8.538 24.0028 -1.84949
388 1 9.48137 25.8011 -0.122761 9.48137 25.8011 -0.122761
389 2 11.4425 25.8612 1.4924 11.4425 25.8612 1.4924
390 2 11.3852 25.6765 -1.75024 11.3852 25.6765 -1.75024
391 1 12.4177 24.0286 -0.125331 12.4177 24.0286 -0.125331
392 2 14.0332 24.0272 1.81643 14.0332 24.0272 1.81643
393 2 14.7109 24.1045 -1.39139 14.7109 24.1045 -1.39139
394 1 15.2728 25.8 0.444515 15.2728 25.8 0.444515
395 2 17.1912 25.9179 1.99943 17.1912 25.9179 1.99943
396 2 17.3197 25.8288 -1.23747 17.3197 25.8288 -1.23747
397 1 18.0767 24.1016 0.464467 18.0767 24.1016 0.464467
398 2 20.0304 23.9972 1.90746 20.0304 23.9972 1.90746
399 2 19.8374 23.8334 -1.29858 19.8374 23.8334 -1.29858
400 1 20.9351 25.6699 0.10011 20.9351 25.6699 0.10011
401 2 22.9011 25.7853 1.56896 22.9011 25.7853 1.56896
402 2 22.8839 25.525 -1.52304 22.8839 25.525 -1.52304
403 1 23.7844 23.9077 0.233207 23.7844 23.9077 0.233207
404 2 25.8071 23.9492 1.68601 25.8071 23.9492 1.68601
405 2 25.7439 23.9148 -1.52802 25.7439 23.9148 -1.52802
406 1 26.6463 25.775 0.0658701 26.6463 25.775 0.0658701
407 2 28.5191 25.7457 1.67879 28.5191 25.7457 1.67879
408 2 28.627 25.7915 -1.49224 28.627 25.7915 -1.49224
409 1 29.5477 23.8964 0.111632 29.5477 23.8964 0.111632
410 2 31.4667 23.9861 1.71551 31.4667 23.9861 1.71551
411 2 31.6297 23.8041 -1.37059 31.6297 23.8041 -1.37059
412 1 32.4773 25.825 0.0892018 32.4773 25.825 0.0892018
413 2 34.6194 25.7571 1.51277 34.6194 25.7571 1.51277
414 2 34.254 25.6356 -1.69738 34.254 25.6356 -1.69738
415 1 35.3468 23.9156 -0.15001 35.3468 23.9156 -0.15001
416 2 37.3054 23.8764 1.42024 37.3054 23.8764 1.42024
417 2 37.2288 23.9952 -1.75631 37.2288 23.9952 -1.75631
418 1 38.151 25.6746 -0.146261 38.151 25.6746 -0.146261
419 2 40.2444 25.8657 1.34159 40.2444 25.8657 1.34159
420 2 39.9237 25.5878 -1.87875 39.9237 25.5878 -1.87875
421 1 41.069 23.7742 -0.102788 41.069 23.7742 -0.102788
422 2 43.0741 23.9754 1.43705 43.0741 23.9754 1.43705
423 2 43.0848 23.852 -1.68268 43.0848 23.852 -1.68268
424 1 43.9115 25.8415 -0.242533 43.9115 25.8415 -0.242533
425 2 45.7016 25.8641 1.38949 45.7016 25.8641 1.38949
426 2 45.8847 25.7567 -1.76147 45.8847 25.7567 -1.76147
427 1 46.7346 23.9489 -0.0815916 46.7346 23.9489 -0.0815916
428 2 48.6659 23.8933 1.63574 48.6659 23.8933 1.63574
429 2 48.6952 23.8224 -1.57852 48.6952 23.8224 -1.57852
430 1 49.5748 25.7754 -0.16687 49.5748 25.7754 -0.16687
431 2 51.6324 25.7789 1.28266 51.6324 25.7789 1.28266
432 2 51.5145 25.8107 -1.9804 51.5145 25.8107 -1.9804
433 1 0.934531 27.585 -0.376026 0.934531 27.585 -0.376026
434 2 2.91164 27.7066 1.22167 2.91164 27.7066 1.22167
435 2 2.83081 27.6533 -1.97044 2.83081 27.6533 -1.97044
436 1 3.8293 29.4632 -0.359235 3.8293 29.4632 -0.359235
437 2 5.75023 29.3136 1.28541 5.75023 29.3136 1.28541
438 2 5.81243 29.454 -1.93311 5.81243 29.454 -1.93311
439 1 6.59678 27.632 -0.392074 6.59678 27.632 -0.392074
440 2 8.36647 27.7601 1.38409 8.36647 27.7601 1.38409
441 2 8.76749 27.6064 -1.80779 8.76749 27.6064 -1.80779
442 1 9.53859 29.455 -0.186814 9.53859 29.455 -0.186814
443 2 11.4318 29.4142 1.47208 11.4318 29.4142 1.47208
444 2 11.4886 29.4335 -1.84683 11.4886 29.4335 -1.84683
445 1 12.335 27.6194 -0.147364 12.335 27.6194 -0.147364
446 2 13.9742 27.7087 1.83501 13.9742 27.7087 1.83501
447 2 14.5955 27.5884 -1.3846 14.5955 27.5884 -1.3846
448 1 15.3302 29.4311 0.380868 15.3302 29.4311 0.380868
449 2 17.2833 29.5432 1.87924 17.2833 29.5432 1.87924
450 2 17.2843 29.5387 -1.27415 17.2843 29.5387 -1.27415
451 1 18.1954 27.6531 0.313099 18.1954 27.6531 0.313099
452 2 20.3186 27.5545 1.61056 20.3186 27.5545 1.61056
453 2 20.0289 27.6331 -1.42919 20.0289 27.6331 -1.42919
454 1 21.0559 29.4561 0.114942 21.0559 29.4561 0.114942
455 2 23.0834 29.4413 1.47467 23.0834 29.4413 1.47467
456 2 22.8227 29.4213 -1.73479 22.8227 29.4213 -1.73479
457 1 23.7442 27.6505 -0.104933 23.7442 27.6505 -0.104933
458 2 25.6429 27.6563 1.56692 25.6429 27.6563 1.56692
459 2 25.8356 27.5493 -1.69522 25.8356 27.5493 -1.69522
460 1 26.6606 29.391 -0.157014 26.6606 29.391 -0.157014
461 2 28.5861 29.489 1.5083 28.5861 29.489 1.5083
462 2 28.6431 29.2458 -1.70673 28.6431 29.2458 -1.70673
463 1 29.597 27.5842 0.0908658 29.597 27.5842 0.0908658
464 2 31.5793 27.8186 1.54193 31.5793 27.8186 1.54193
465 2 31.5712 27.5233 -1.6579 31.5712 27.5233 -1.6579
466 1 32.4943 29.5145 -0.261388 32.4943 29.5145 -0.261388
467 2 34.5296 29.415 1.35461 34.5296 29.415 1.35461
468 2 34.3628 29.4883 -1.91246 34.3628 29.4883 -1.91246
469 1 35.3405 27.6089 -0.241215 35.3405 27.6089 -0.241215
470 2 37.2752 27.5436 1.38977 37.2752 27.5436 1.38977
471 2 37.2418 27.5564 -1.88765 37.2418 27.5564 -1.88765
472 1 38.1621 29.3349 -0.334248 38.1621 29.3349 -0.334248
473 2 40.1538 29.271 1.26613 40.1538 29.271 1.26613
474 2 40.0871 29.3666 -1.95869 40.0871 29.3666 -1.95869
475 1 40.9627 27.4772 -0.449587 40.9627 27.4772 -0.449587
476 2 42.7956 27.6803 1.30885 42.7956 27.6803 1.30885
477 2 42.9471 27.5693 -1.96163 42.9471 27.5693 -1.96163
478 1 43.837 29.3102 -0.294428 43.837 29.3102 -0.294428
479 2 45.6395 29.4102 1.37712 45.6395 29.4102 1.37712
480 2 45.8319 29.2502 -1.83032 45.8319 29.2502 -1.83032
481 1 46.6372 27.5727 -0.183462 46.6372 27.5727 -0.183462
482 2 48.6394 27.6121 1.39204 48.6394 27.6121 1.39204
483 2 48.695 27.6181 -1.75181 48.695 27.6181 -1.75181
484 1 49.6111 29.3881 -0.0857361 49.6111 29.3881 -0.0857361
485 2 51.5269 29.4729 1.34887 51.5269 29.4729 1.34887
486 2 51.4406 29.4409 -1.86572 51.4406 29.4409 -1.86572
487 1 0.947235 31.2171 -0.289884 0.947235 31.2171 -0.289884
488 2 3.0626 31.2534 1.2762 3.0626 31.2534 1.2762
489 2 2.82118 31.1421 -1.95652 2.82118 31.1421 -1.95652
490 1 3.85421 33.1319 -0.481007 3.85421 33.1319 -0.481007
491 2 5.59837 33.1 1.31693 5.59837 33.1 1.31693
492 2 5.9804 33.0841 -1.96683 5.9804 33.0841 -1.96683
493 1 6.67924 31.1753 -0.275112 6.67924 31.1753 -0.275112
494 2 8.73625 31.2295 1.35114 8.73625 31.2295 1.35114
495 2 8.76303 31.1714 -1.84793 8.76303 31.1714 -1.84793
496 1 9.595 33.0796 -0.276638 9.595 33.0796 -0.276638
497 2 11.6315 33.1446 1.29476 11.6315 33.1446 1.29476
498 2 11.6694 33.0774 -1.89912 11.6694 33.0774 -1.89912
499 1 12.4908 31.2942 -0.297954 12.4908 31.2942 -0.297954
500 2 14.2023 31.4975 1.60825 14.2023 31.4975 1.60825
501 2 14.6387 31.142 -1.5098 14.6387 31.142 -1.5098
502 1 15.3716 33.0682 0.0694229 15.3716 33.0682 0.0694229
503 2 17.1767 32.992 1.71845 17.1767 32.992 1.71845
504 2 17.2194 32.8869 -1.51727 17.2194 32.8869 -1.51727
505 1 18.2441 31.2881 0.192005 18.2441 31.2881 0.192005
506 2 20.2367 31.3559 1.73221 20.2367 31.3559 1.73221
507 2 20.0536 31.0628 -1.5359 20.0536 31.0628 -1.5359
508 1 21.0671 33.1241 -0.0542353 21.0671 33.1241 -0.0542353
509 2 23.0653 33.1546 1.33478 23.0653 33.1546 1.33478
510 2 22.8831 33.0744 -1.8473 22.8831 33.0744 -1.8473
511 1 23.9177 31.2831 -0.286421 23.9177 31.2831 -0.286421
512 2 25.7877 31.2592 1.43364 25.7877 31.2592 1.43364
513 2 25.9591 31.2972 -1.64589 25.9591 31.2972 -1.64589
514 1 26.7822 33.1401 -0.115275 26.7822 33.1401 -0.115275
515 2 28.7344 33.0796 1.43383 28.7344 33.0796 1.43383
516 2 28.6378 32.963 -1.90279 28.6378 32.963 -1.90279
517 1 29.5638 31.2156 -0.148171 29.5638 31.2156 -0.148171
518 2 31.6896 31.5645 1.20448 31.6896 31.5645 1.20448
519 2 31.2883 31.2272 -1.95181 31.2883 31.2272 -1.95181
520 1 32.3466 33.0943 -0.68405 32.3466 33.0943 -0.68405
521 2 34.1494 33.1796 1.02652 34.1494 33.1796 1.02652
522 2 34.4837 32.9561 -2.11649 34.4837 32.9561 -2.11649
523 1 35.2298 31.2191 -0.35142 35.2298 31.2191 -0.35142
524 2 37.178 31.1141 1.26168 37.178 31.1141 1.26168
525 2 37.2472 31.2299 -1.94213 37.2472 31.2299 -1.94213
526 1 38.1684 33.0764 -0.183695 38.1684 33.0764 -0.183695
527 2 40.1829 32.9794 1.35553 40.1829 32.9794 1.35553
528 2 39.9254 32.9261 -1.90441 39.9254 32.9261 -1.90441
529 1 40.9256 31.197 -0.344599 40.9256 31.197 -0.344599
530 2 42.8831 31.1029 1.39522 42.8831 31.1029 1.39522
531 2 43.0033 31.2261 -1.83749 43.0033 31.2261 -1.83749
532 1 43.8025 33.1076 -0.189102 43.8025 33.1076 -0.189102
533 2 45.8442 33.051 1.29048 45.8442 33.051 1.29048
534 2 45.6874 33.0941 -1.99838 45.6874 33.0941 -1.99838
535 1 46.6566 31.1517 -0.305071 46.6566 31.1517 -0.305071
536 2 48.5819 31.4335 1.45426 48.5819 31.4335 1.45426