ITEM: TIMESTEP
5020000
ITEM: NUMBER OF ATOMS
810
ITEM: BOX BOUNDS pp pp pp
8.0341777045796159e-01 5.2214187229542503e+01
-1.1594728315080278e+01 6.2610943315079147e+01
-1.0000000000000000e+01 1.0000000000000000e+01
ITEM: ATOMS id type x y z xu yu zu
1 1 1.06946 61.4185 1.00287 1.06946 -12.7872 1.00287
2 2 2.95653 60.424 2.34832 2.95653 -13.7817 2.34832
3 2 3.02945 62.4416 -0.381803 3.02945 -11.7641 -0.381803
4 1 3.92016 62.7579 1.93855 3.92016 -11.4478 1.93855
5 2 5.63106 61.5847 3.38453 5.63106 -12.621 3.38453
6 2 5.92345 -10.4025 0.913479 5.92345 -10.4025 0.913479
7 1 6.73331 61.4077 1.15135 6.73331 -12.798 1.15135
8 2 8.53757 60.1935 2.47651 8.53757 -14.0121 2.47651
9 2 8.84974 62.2001 -0.0495084 8.84974 -12.0055 -0.0495084
10 1 9.61906 62.4631 2.25849 9.61906 -11.7426 2.25849
11 2 11.5986 61.5475 3.53716 11.5986 -12.6582 3.53716
12 2 11.4705 -10.7851 0.940311 11.4705 -10.7851 0.940311
13 1 12.5529 61.1752 1.22628 12.5529 -13.0304 1.22628
14 2 14.485 60.2354 2.60892 14.485 -13.9703 2.60892
15 2 14.3878 62.0765 -0.247235 14.3878 -12.1292 -0.247235
16 1 15.3055 62.568 2.07703 15.3055 -11.6377 2.07703
17 2 17.3387 61.6764 3.38285 17.3387 -12.5293 3.38285
18 2 17.1049 -10.5184 0.768532 17.1049 -10.5184 0.768532
19 1 18.1886 61.3037 1.0763 18.1886 -12.902 1.0763
20 2 20.0489 60.4393 2.58002 20.0489 -13.7664 2.58002
21 2 20.1628 62.2114 -0.158604 20.1628 -11.9943 -0.158604
22 1 21.0521 62.5964 2.06974 21.0521 -11.6092 2.06974
23 2 22.9458 61.5133 3.40978 22.9458 -12.6924 3.40978
24 2 22.9758 -10.6041 0.797628 22.9758 -10.6041 0.797628
25 1 23.8468 61.2415 1.05312 23.8468 -12.9641 1.05312
26 2 25.4347 60.1922 2.6388 25.4347 -14.0135 2.6388
27 2 25.9214 62.1398 0.0869446 25.9214 -12.0659 0.0869446
28 1 26.6881 62.3977 2.42589 26.6881 -11.808 2.42589
29 2 28.709 61.5736 3.64423 28.709 -12.6321 3.64423
30 2 28.3835 -10.7723 0.887172 28.3835 -10.7723 0.887172
31 1 29.5415 61.2465 1.30512 29.5415 -12.9592 1.30512
32 2 31.6231 60.4109 2.37456 31.6231 -13.7948 2.37456
33 2 31.276 62.3083 -0.277795 31.276 -11.8973 -0.277795
34 1 32.4385 -11.4748 1.88969 32.4385 -11.4748 1.88969
35 2 34.5976 61.8963 3.03947 34.5976 -12.3093 3.03947
36 2 34.0789 -10.2231 0.515418 34.0789 -10.2231 0.515418
37 1 35.2305 61.6937 0.539232 35.2305 -12.512 0.539232
38 2 37.1781 60.7664 1.93437 37.1781 -13.4393 1.93437
39 2 37.2306 -11.5289 -0.786527 37.2306 -11.5289 -0.786527
40 1 38.1629 -11.1164 1.5249 38.1629 -11.1164 1.5249
41 2 40.0127 62.0561 2.81239 40.0127 -12.1495 2.81239
42 2 39.9825 -10.0204 0.25702 39.9825 -10.0204 0.25702
43 1 40.9494 61.946 0.523266 40.9494 -12.2596 0.523266
44 2 42.8171 60.8178 1.76922 42.8171 -13.3879 1.76922
45 2 42.8606 -11.4003 -0.780729 42.8606 -11.4003 -0.780729
46 1 43.7731 -11.0858 1.53073 43.7731 -11.0858 1.53073
47 2 45.5775 61.9772 2.88382 45.5775 -12.2285 2.88382
48 2 45.8835 -10.2603 0.354513 45.8835 -10.2603 0.354513
49 1 46.7391 61.6352 0.647296 46.7391 -12.5705 0.647296
50 2 48.7421 60.5267 1.95701 48.7421 -13.679 1.95701
51 2 48.6267 -11.5649 -0.552616 48.6267 -11.5649 -0.552616
52 1 49.6537 -11.3507 1.70756 49.6537 -11.3507 1.70756
53 2 51.2553 61.7832 3.16404 51.2553 -12.4224 3.16404
54 2 51.7662 -10.4052 0.5392 51.7662 -10.4052 0.5392
55 1 0.987512 -10.1052 2.93157 0.987512 -10.1052 2.93157
56 2 2.76981 -11.2234 4.14574 2.76981 -11.2234 4.14574
57 2 2.97097 -9.10001 1.73552 2.97097 -9.10001 1.73552
58 1 3.7682 -8.89484 4.06771 3.7682 -8.89484 4.06771
59 2 5.5764 -9.91018 5.50146 5.5764 -9.91018 5.50146
60 2 5.72141 -8.09509 2.74743 5.72141 -8.09509 2.74743
61 1 6.74389 -10.3269 3.29069 6.74389 -10.3269 3.29069
62 2 8.70369 -11.2962 4.63203 8.70369 -11.2962 4.63203
63 2 8.59502 -9.38044 1.99681 8.59502 -9.38044 1.99681
64 1 9.59655 -8.97591 4.24543 9.59655 -8.97591 4.24543
65 2 11.4042 -9.91938 5.55249 11.4042 -9.91938 5.55249
66 2 11.4844 -8.21101 2.80404 11.4844 -8.21101 2.80404
67 1 12.5363 -10.4625 3.26144 12.5363 -10.4625 3.26144
68 2 14.5847 -11.2002 4.42825 14.5847 -11.2002 4.42825
69 2 14.203 -9.47873 1.70587 14.203 -9.47873 1.70587
70 1 15.3244 -8.9074 3.89606 15.3244 -8.9074 3.89606
71 2 17.2247 -9.87821 5.29957 17.2247 -9.87821 5.29957
72 2 17.2424 -7.87732 2.55588 17.2424 -7.87732 2.55588
73 1 18.1849 -10.2346 3.0197 18.1849 -10.2346 3.0197
74 2 20.248 -10.9192 4.30727 20.248 -10.9192 4.30727
75 2 20.0664 -9.36433 1.46092 20.0664 -9.36433 1.46092
76 1 21.0824 -8.67079 3.74869 21.0824 -8.67079 3.74869
77 2 22.5749 -9.73693 5.31921 22.5749 -9.73693 5.31921
78 2 23.1838 -8.10566 2.6396 23.1838 -8.10566 2.6396
79 1 23.7999 -10.387 3.16425 23.7999 -10.387 3.16425
80 2 25.6018 -11.1112 4.61974 25.6018 -11.1112 4.61974
81 2 25.7477 -9.51985 1.85087 25.7477 -9.51985 1.85087
82 1 26.7712 -9.00817 4.15144 26.7712 -9.00817 4.15144
83 2 28.8056 -9.90152 5.45382 28.8056 -9.90152 5.45382
84 2 28.6696 -8.02751 2.82159 28.6696 -8.02751 2.82159
85 1 29.5522 -10.2664 3.15534 29.5522 -10.2664 3.15534
86 2 31.5039 -11.2465 4.3125 31.5039 -11.2465 4.3125
87 2 31.298 -9.12846 1.86559 31.298 -9.12846 1.86559
88 1 32.4038 -8.93343 4.10652 32.4038 -8.93343 4.10652
89 2 34.3694 -9.88088 5.08105 34.3694 -9.88088 5.08105
90 2 34.0367 -7.6932 2.68291 34.0367 -7.6932 2.68291
91 1 35.2511 -9.95392 2.66638 35.2511 -9.95392 2.66638
92 2 37.3961 -10.8058 3.90811 37.3961 -10.8058 3.90811
93 2 37.0597 -8.80207 1.32485 37.0597 -8.80207 1.32485
94 1 38.0396 -8.50404 3.55214 38.0396 -8.50404 3.55214
95 2 40.0837 -9.38221 4.79765 40.0837 -9.38221 4.79765
96 2 39.8443 -7.46849 2.18146 39.8443 -7.46849 2.18146
97 1 40.8395 -9.74839 2.47237 40.8395 -9.74839 2.47237
98 2 42.6854 -10.7796 3.73585 42.6854 -10.7796 3.73585
99 2 42.7965 -8.82376 1.26325 42.7965 -8.82376 1.26325
100 1 43.7978 -8.48932 3.56039 43.7978 -8.48932 3.56039
101 2 45.6172 -9.54637 5.04275 45.6172 -9.54637 5.04275
102 2 45.7803 -7.59277 2.31813 45.7803 -7.59277 2.31813
103 1 46.577 -9.9229 2.74182 46.577 -9.9229 2.74182
104 2 48.555 -11.1077 3.97644 48.555 -11.1077 3.97644
105 2 48.5375 -8.93967 1.5334 48.5375 -8.93967 1.5334
106 1 49.5571 -8.74508 3.8256 49.5571 -8.74508 3.8256
107 2 51.4172 -9.78878 5.13688 51.4172 -9.78878 5.13688
108 2 51.4824 -7.79813 2.59301 51.4824 -7.79813 2.59301
109 1 0.950099 -7.40283 4.99181 0.950099 -7.40283 4.99181
110 2 2.74182 -8.46751 6.33388 2.74182 -8.46751 6.33388
111 2 2.88036 -6.61736 3.68301 2.88036 -6.61736 3.68301
112 1 3.91562 -6.26017 5.94496 3.91562 -6.26017 5.94496
113 2 5.63658 -7.32364 7.41475 5.63658 -7.32364 7.41475
114 2 5.89971 -5.31911 4.81998 5.89971 -5.31911 4.81998
115 1 6.73621 -7.68354 5.15986 6.73621 -7.68354 5.15986
116 2 8.58033 -8.69464 6.51884 8.58033 -8.69464 6.51884
117 2 8.64183 -6.7017 3.82488 8.64183 -6.7017 3.82488
118 1 9.5554 -6.40779 6.16655 9.5554 -6.40779 6.16655
119 2 11.5168 -7.36987 7.48808 11.5168 -7.36987 7.48808
120 2 11.3806 -5.37733 4.79948 11.3806 -5.37733 4.79948
121 1 12.401 -7.67864 5.18982 12.401 -7.67864 5.18982
122 2 14.5383 -8.62022 6.26932 14.5383 -8.62022 6.26932
123 2 14.1966 -6.64152 3.7839 14.1966 -6.64152 3.7839
124 1 15.3481 -6.33794 5.90942 15.3481 -6.33794 5.90942
125 2 17.3683 -7.14401 7.21676 17.3683 -7.14401 7.21676
126 2 17.0913 -5.2516 4.53756 17.0913 -5.2516 4.53756
127 1 18.1718 -7.53992 4.91896 18.1718 -7.53992 4.91896
128 2 20.1304 -8.39605 6.07871 20.1304 -8.39605 6.07871
129 2 19.8246 -6.50206 3.4439 19.8246 -6.50206 3.4439
130 1 20.9784 -6.01258 5.667 20.9784 -6.01258 5.667
131 2 22.838 -6.72348 7.20103 22.838 -6.72348 7.20103
132 2 23.0499 -5.41087 4.17997 23.0499 -5.41087 4.17997
133 1 23.8804 -7.64554 5.0486 23.8804 -7.64554 5.0486
134 2 25.8567 -8.61478 6.38355 25.8567 -8.61478 6.38355
135 2 25.7277 -6.7697 3.69793 25.7277 -6.7697 3.69793
136 1 26.7576 -6.30671 5.93162 26.7576 -6.30671 5.93162
137 2 28.6049 -7.13959 7.40089 28.6049 -7.13959 7.40089
138 2 28.6748 -5.33734 4.5781 28.6748 -5.33734 4.5781
139 1 29.6636 -7.67648 5.07181 29.6636 -7.67648 5.07181
140 2 31.5479 -8.67813 6.36836 31.5479 -8.67813 6.36836
141 2 31.5379 -6.53445 3.90638 31.5379 -6.53445 3.90638
142 1 32.3917 -6.26683 6.2458 32.3917 -6.26683 6.2458
143 2 34.4583 -7.20475 7.33239 34.4583 -7.20475 7.33239
144 2 34.0594 -5.1075 4.81621 34.0594 -5.1075 4.81621
145 1 35.3067 -7.46486 4.85474 35.3067 -7.46486 4.85474
146 2 37.3806 -8.36193 5.94521 37.3806 -8.36193 5.94521
147 2 37.1123 -6.19562 3.42536 37.1123 -6.19562 3.42536
148 1 38.1441 -5.87071 5.71827 38.1441 -5.87071 5.71827
149 2 40.0897 -6.90878 6.87699 40.0897 -6.90878 6.87699
150 2 39.9209 -4.73932 4.32931 39.9209 -4.73932 4.32931
151 1 40.9165 -7.07773 4.45273 40.9165 -7.07773 4.45273
152 2 42.8507 -8.02382 5.8083 42.8507 -8.02382 5.8083
153 2 42.8291 -6.09195 3.17153 42.8291 -6.09195 3.17153
154 1 43.8683 -5.72103 5.46912 43.8683 -5.72103 5.46912
155 2 45.6296 -6.90466 6.82277 45.6296 -6.90466 6.82277
156 2 45.9809 -4.78052 4.41529 45.9809 -4.78052 4.41529
157 1 46.6188 -7.21269 4.57615 46.6188 -7.21269 4.57615
158 2 48.3498 -8.36059 6.06398 48.3498 -8.36059 6.06398
159 2 48.8404 -6.3368 3.525 48.8404 -6.3368 3.525
160 1 49.5354 -6.08709 5.93524 49.5354 -6.08709 5.93524
161 2 51.4962 -7.07449 7.24993 51.4962 -7.07449 7.24993
162 2 51.496 -5.16414 4.64576 51.496 -5.16414 4.64576
163 1 1.05542 -4.77211 6.86944 1.05542 -4.77211 6.86944
164 2 2.83928 -5.81421 8.28979 2.83928 -5.81421 8.28979
165 2 2.92409 -3.86975 5.66591 2.92409 -3.86975 5.66591
166 1 3.90892 -3.66803 7.95284 3.90892 -3.66803 7.95284
167 2 5.69426 -4.83496 9.42479 5.69426 -4.83496 9.42479
168 2 5.8916 -2.76704 6.86349 5.8916 -2.76704 6.86349
169 1 6.7404 -5.02886 7.14541 6.7404 -5.02886 7.14541
170 2 8.64842 -5.89784 8.58188 8.64842 -5.89784 8.58188
171 2 8.63458 -4.06413 5.75006 8.63458 -4.06413 5.75006
172 1 9.59309 -3.67816 8.03448 9.59309 -3.67816 8.03448
173 2 11.4218 -4.7267 9.37348 11.4218 -4.7267 9.37348
174 2 11.6114 -2.73492 6.7286 11.6114 -2.73492 6.7286
175 1 12.4226 -5.00328 6.99678 12.4226 -5.00328 6.99678
176 2 14.489 -5.93497 8.16423 14.489 -5.93497 8.16423
177 2 14.1711 -4.05877 5.47301 14.1711 -4.05877 5.47301
178 1 15.3871 -3.55623 7.69669 15.3871 -3.55623 7.69669
179 2 17.2471 -4.526 9.02705 17.2471 -4.526 9.02705
180 2 17.1277 -2.52118 6.40772 17.1277 -2.52118 6.40772
181 1 18.1916 -4.82142 6.68053 18.1916 -4.82142 6.68053
182 2 20.0996 -5.65142 7.97973 20.0996 -5.65142 7.97973
183 2 19.9734 -3.76723 5.25378 19.9734 -3.76723 5.25378
184 1 21.0102 -3.30195 7.43333 21.0102 -3.30195 7.43333
185 2 22.993 -4.04339 8.7498 22.993 -4.04339 8.7498
186 2 22.7656 -2.35759 6.02963 22.7656 -2.35759 6.02963
187 1 23.8335 -4.59805 6.47276 23.8335 -4.59805 6.47276
188 2 25.6407 -5.54089 8.08394 25.6407 -5.54089 8.08394
189 2 26.08 -3.94165 5.2869 26.08 -3.94165 5.2869
190 1 26.6978 -3.34971 7.56083 26.6978 -3.34971 7.56083
191 2 28.3322 -4.35059 9.08094 28.3322 -4.35059 9.08094
192 2 28.8247 -2.57988 6.40586 28.8247 -2.57988 6.40586
193 1 29.5058 -4.82149 6.97193 29.5058 -4.82149 6.97193
194 2 31.3225 -5.82814 8.42037 31.3225 -5.82814 8.42037
195 2 31.4941 -3.99915 5.69792 31.4941 -3.99915 5.69792
196 1 32.4024 -3.53347 7.97841 32.4024 -3.53347 7.97841
197 2 34.3333 -4.50886 9.22498 34.3333 -4.50886 9.22498
198 2 34.2188 -2.54185 6.65647 34.2188 -2.54185 6.65647
199 1 35.2764 -4.81746 6.90712 35.2764 -4.81746 6.90712
200 2 37.3951 -5.45048 8.03336 37.3951 -5.45048 8.03336
201 2 36.9491 -3.66177 5.33659 36.9491 -3.66177 5.33659
202 1 38.1151 -3.08593 7.45644 38.1151 -3.08593 7.45644
203 2 39.9681 -4.10243 8.80394 39.9681 -4.10243 8.80394
204 2 40.0342 -2.16139 6.19274 40.0342 -2.16139 6.19274
205 1 41.075 -4.49885 6.56616 41.075 -4.49885 6.56616
206 2 42.9155 -5.58806 7.78743 42.9155 -5.58806 7.78743
207 2 43.0443 -3.37124 5.3144 43.0443 -3.37124 5.3144
208 1 43.873 -3.3032 7.72169 43.873 -3.3032 7.72169
209 2 45.8914 -4.1608 9.09055 45.8914 -4.1608 9.09055
210 2 45.7772 -2.28191 6.38533 45.7772 -2.28191 6.38533
211 1 46.8079 -4.62437 6.71438 46.8079 -4.62437 6.71438
212 2 48.6662 -5.36543 8.23114 48.6662 -5.36543 8.23114
213 2 48.7542 -3.77554 5.32831 48.7542 -3.77554 5.32831
214 1 49.7108 -3.27881 7.56087 49.7108 -3.27881 7.56087
215 2 51.4214 -4.23887 9.00033 51.4214 -4.23887 9.00033
216 2 51.5863 -2.41386 6.34766 51.5863 -2.41386 6.34766
217 1 1.08597 -2.04154 8.62269 1.08597 -2.04154 8.62269
218 2 2.64773 -3.24967 -9.87839 2.64773 -3.24967 10.1216
219 2 3.23561 -1.34179 7.68025 3.23561 -1.34179 7.68025
220 1 3.79227 -1.1348 10.0676 3.79227 -1.1348 10.0676
221 2 5.63425 -1.99327 -8.47374 5.63425 -1.99327 11.5263
222 2 5.82576 -0.242107 8.74896 5.82576 -0.242107 8.74896
223 1 6.70961 -2.43056 9.16466 6.70961 -2.43056 9.16466
224 2 8.69625 -3.30664 -9.62239 8.69625 -3.30664 10.3776
225 2 8.46353 -1.46771 7.63987 8.46353 -1.46771 7.63987
226 1 9.59189 -1.03488 -10.1661 9.59189 -1.03488 9.83392
227 2 11.3542 -2.19859 -8.68397 11.3542 -2.19859 11.316
228 2 11.6752 -0.118919 8.73562 11.6752 -0.118919 8.73562
229 1 12.5069 -2.47955 9.15663 12.5069 -2.47955 9.15663
230 2 14.6246 -3.50577 -9.95545 14.6246 -3.50577 10.0446
231 2 14.365 -1.27614 7.54871 14.365 -1.27614 7.54871
232 1 15.3211 -1.07746 9.88272 15.3211 -1.07746 9.88272
233 2 17.209 -2.04386 -8.92276 17.209 -2.04386 11.0772
234 2 17.1621 0.0149188 8.56945 17.1621 0.0149188 8.56945
235 1 18.1717 -2.2956 8.70513 18.1717 -2.2956 8.70513
236 2 20.0914 -3.17243 -10.1987 20.0914 -3.17243 9.80128
237 2 19.921 -1.10115 7.30907 19.921 -1.10115 7.30907
238 1 21.006 -0.80395 9.52896 21.006 -0.80395 9.52896
239 2 23.132 -1.48654 -9.39157 23.132 -1.48654 10.6084
240 2 22.6431 0.299597 8.02356 22.6431 0.299597 8.02356
241 1 23.8399 -1.81726 8.29263 23.8399 -1.81726 8.29263
242 2 25.7001 -2.8597 -10.152 25.7001 -2.8597 9.84802
243 2 25.8959 -0.932998 7.11882 25.8959 -0.932998 7.11882
244 1 26.7233 -0.641732 9.49148 26.7233 -0.641732 9.49148
245 2 28.5169 -1.8121 -8.96468 28.5169 -1.8121 11.0353
246 2 28.8051 0.301655 8.32164 28.8051 0.301655 8.32164
247 1 29.6178 -2.1352 8.82957 29.6178 -2.1352 8.82957
248 2 31.3989 -3.12559 -9.83481 31.3989 -3.12559 10.1652
249 2 31.6161 -1.20211 7.59986 31.6161 -1.20211 7.59986
250 1 32.4411 -0.895061 9.92861 32.4411 -0.895061 9.92861
251 2 34.3767 -1.80266 -8.75165 34.3767 -1.80266 11.2483
252 2 34.1673 0.0801347 8.4917 34.1673 0.0801347 8.4917
253 1 35.2615 -2.16404 8.94057 35.2615 -2.16404 8.94057
254 2 37.444 -2.94366 -10.0294 37.444 -2.94366 9.97056
255 2 36.8862 -0.83556 7.46918 36.8862 -0.83556 7.46918
256 1 38.201 -0.575944 9.59909 38.201 -0.575944 9.59909
257 2 40.0335 -1.49896 -9.00028 40.0335 -1.49896 10.9997
258 2 41.7264 0.449519 9.41565 41.7264 0.449519 9.41565
259 1 41.0261 -1.78436 8.62258 41.0261 -1.78436 8.62258
260 2 42.6767 -3.00882 9.97891 42.6767 -3.00882 9.97891
261 2 43.1869 -0.904433 7.4972 43.1869 -0.904433 7.4972
262 1 43.9187 -0.74514 9.87291 43.9187 -0.74514 9.87291
263 2 45.8868 -2.00593 -9.04279 45.8868 -2.00593 10.9572
264 2 45.8412 0.40332 8.82815 45.8412 0.40332 8.82815
265 1 46.8721 -1.90049 8.6476 46.8721 -1.90049 8.6476
266 2 48.7697 -3.0088 9.92096 48.7697 -3.0088 9.92096
267 2 48.73 -1.03026 7.28335 48.73 -1.03026 7.28335
268 1 49.6546 -0.64671 9.48404 49.6546 -0.64671 9.48404
269 2 51.4243 -1.71654 -9.20177 51.4243 -1.71654 10.7982
270 2 51.4598 0.231239 8.11796 51.4598 0.231239 8.11796
271 1 0.969442 0.632313 -9.57642 0.969442 0.632313 10.4236
272 2 2.55479 -0.513084 -7.80875 2.55479 -0.513084 12.1912
273 2 3.1761 1.20656 9.43388 3.1761 1.20656 9.43388
274 1 3.78981 1.69212 -8.1855 3.78981 1.69212 11.8145
275 2 5.55522 0.798439 -6.74037 5.55522 0.798439 13.2596
276 2 5.7613 2.37045 -9.61957 5.7613 2.37045 10.3804
277 1 6.62843 0.188655 -8.91282 6.62843 0.188655 11.0872
278 2 8.71739 -0.927949 -7.8869 8.71739 -0.927949 12.1131
279 2 8.43132 1.25817 9.70033 8.43132 1.25817 9.70033
280 1 9.48703 1.53553 -8.08156 9.48703 1.53553 11.9184
281 2 11.3815 0.637998 -6.71493 11.3815 0.637998 13.2851
282 2 11.4303 2.34858 -9.52372 11.4303 2.34858 10.4763
283 1 12.4462 0.141141 -8.93478 12.4462 0.141141 11.0652
284 2 14.3848 -1.00158 -7.80256 14.3848 -1.00158 12.1974
285 2 14.2458 1.21028 9.87316 14.2458 1.21028 9.87316
286 1 15.3336 1.27423 -7.90343 15.3336 1.27423 12.0966
287 2 17.3306 0.0579648 -6.8301 17.3306 0.0579648 13.1699
288 2 17.3074 2.58168 -8.87114 17.3074 2.58168 11.1289
289 1 18.1523 0.320283 -9.06963 18.1523 0.320283 10.9304
290 2 20.1408 -0.675904 -8.12619 20.1408 -0.675904 11.8738
291 2 19.788 1.38005 9.47038 19.788 1.38005 9.47038
292 1 20.9112 1.78612 -8.3453 20.9112 1.78612 11.6547
293 2 23.1418 1.06998 -7.38559 23.1418 1.06998 12.6144
294 2 22.5306 3.00438 -9.93597 22.5306 3.00438 10.064
295 1 23.8052 0.880429 -9.72521 23.8052 0.880429 10.2748
296 2 25.7183 -0.197482 -8.35791 25.7183 -0.197482 11.6421
297 2 25.9585 1.64444 9.01173 25.9585 1.64444 9.01173
298 1 26.7279 2.06479 -8.68617 26.7279 2.06479 11.3138
299 2 28.4925 1.13483 -7.1994 28.4925 1.13483 12.8006
300 2 28.8668 2.93922 -9.82242 28.8668 2.93922 10.1776
301 1 29.5367 0.557579 -9.29404 29.5367 0.557579 10.706
302 2 31.5002 -0.259204 -7.85126 31.5002 -0.259204 12.1487
303 2 31.5145 1.37418 9.46728 31.5145 1.37418 9.46728
304 1 32.4271 1.91274 -8.3634 32.4271 1.91274 11.6366
305 2 34.4698 1.28546 -7.11618 34.4698 1.28546 12.8838
306 2 34.3849 2.78183 -9.79159 34.3849 2.78183 10.2084
307 1 35.2574 0.569829 -9.32702 35.2574 0.569829 10.673
308 2 37.0856 -0.593537 -8.08775 37.0856 -0.593537 11.9122
309 2 37.521 1.65078 10.4663 37.521 1.65078 10.4663
310 1 38.5453 34.1871 5.7023 38.5453 34.1871 -14.2977
311 2 39.274 31.7976 5.84247 39.274 31.7976 -14.1575
312 2 40.8606 35.0288 5.20898 40.8606 35.0288 -14.791
313 1 41.5345 32.6187 5.39604 41.5345 32.6187 -14.604
314 2 41.2161 32.3819 7.91611 41.2161 32.3819 -12.0839
315 2 43.3944 31.0048 5.97628 43.3944 31.0048 -14.0237
316 1 43.7137 32.5915 7.83414 43.7137 32.5915 -12.1659
317 2 45.7293 32.3314 9.45068 45.7293 32.3314 -10.5493
318 2 45.6116 32.7798 6.14191 45.6116 32.7798 -13.8581
319 1 46.7995 0.34598 -8.932 46.7995 0.34598 11.068
320 2 49.0596 -0.538143 -8.03524 49.0596 -0.538143 11.9648
321 2 48.4965 1.51542 9.49247 48.4965 1.51542 9.49247
322 1 49.6346 1.98674 -8.36587 49.6346 1.98674 11.6341
323 2 51.5472 1.07047 -7.32159 51.5472 1.07047 12.6784
324 2 51.3507 2.91959 -9.89792 51.3507 2.91959 10.1021
325 1 0.928214 3.43164 -7.70815 0.928214 3.43164 12.2918
326 2 2.85144 2.74489 -6.20068 2.85144 2.74489 13.7993
327 2 3.05909 3.74472 -9.27147 3.05909 3.74472 10.7285
328 1 3.75821 4.89331 -7.24666 3.75821 4.89331 12.7533
329 2 5.35555 4.12612 -5.47438 5.35555 4.12612 14.5256
330 2 6.03561 5.0556 -8.3281 6.03561 5.0556 11.6719
331 1 6.59964 2.94501 -7.18385 6.59964 2.94501 12.8162
332 2 8.38563 1.77201 -5.86388 8.38563 1.77201 14.1361
333 2 8.61584 3.80122 -8.43633 8.61584 3.80122 11.5637
334 1 9.41222 4.0776 -6.05568 9.41222 4.0776 13.9443
335 2 11.6399 3.04996 -4.89548 11.6399 3.04996 15.1045
336 2 11.3363 5.09256 -7.58454 11.3363 5.09256 12.4155
337 1 12.4147 2.93256 -7.16512 12.4147 2.93256 12.8349
338 2 14.1693 1.67899 -5.64735 14.1693 1.67899 14.3527
339 2 14.4744 3.76113 -8.30258 14.4744 3.76113 11.6974
340 1 15.1456 3.97965 -5.96287 15.1456 3.97965 14.0371
341 2 16.4462 2.76425 -4.22093 16.4462 2.76425 15.7791
342 2 17.2553 4.91634 -6.56174 17.2553 4.91634 13.4383
343 1 18.0932 2.3511 -6.43044 18.0932 2.3511 13.5696
344 2 20.4498 1.36479 -5.8854 20.4498 1.36479 14.1146
345 2 19.5695 3.93621 -7.94905 19.5695 3.93621 12.0509
346 1 20.9137 3.79862 -5.78391 20.9137 3.79862 14.2161
347 2 23.3932 3.21442 -5.22823 23.3932 3.21442 14.7718
348 2 22.1606 5.4599 -7.24496 22.1606 5.4599 12.755
349 1 23.8337 3.5457 -7.6865 23.8337 3.5457 12.3135
350 2 25.8064 2.3364 -6.26665 25.8064 2.3364 13.7334
351 2 26.0145 4.36169 -9.00295 26.0145 4.36169 10.9971
352 1 26.5959 4.64016 -6.44906 26.5959 4.64016 13.5509
353 2 28.3648 3.28737 -5.3646 28.3648 3.28737 14.6354
354 2 28.5976 5.58681 -7.60213 28.5976 5.58681 12.3979
355 1 29.5767 3.31485 -7.52143 29.5767 3.31485 12.4786
356 2 31.588 3.1294 -6.24916 31.588 3.1294 13.7508
357 2 31.4517 4.28402 -8.8312 31.4517 4.28402 11.1688
358 1 32.9852 37.0007 7.5679 32.9852 37.0007 -12.4321
359 2 36.4265 35.8297 9.01685 36.4265 35.8297 -10.9832
360 2 35.0248 37.951 6.64539 35.0248 37.951 -13.3546
361 1 35.7485 35.6388 6.79642 35.7485 35.6388 -13.2036
362 2 38.8208 34.0853 8.14067 38.8208 34.0853 -11.8593
363 2 37.8259 36.6527 6.01993 37.8259 36.6527 -13.9801
364 1 38.6877 36.7073 8.28648 38.6877 36.7073 -11.7135
365 2 40.3112 35.6865 9.91458 40.3112 35.6865 -10.0854
366 2 40.6983 37.1849 7.03674 40.6983 37.1849 -12.9633
367 1 41.2778 34.7706 7.77787 41.2778 34.7706 -12.2221
368 2 42.9109 34.1746 9.66436 42.9109 34.1746 -10.3356
369 2 43.3497 34.5003 6.36373 43.3497 34.5003 -13.6363
370 1 44.3511 35.8848 8.47229 44.3511 35.8848 -11.5277
371 2 46.2128 35.0927 9.996 46.2128 35.0927 -10.004
372 2 46.4139 35.9556 6.82947 46.4139 35.9556 -13.1705
373 1 46.8898 33.9248 7.94368 46.8898 33.9248 -12.0563
374 2 48.7231 33.0404 9.38476 48.7231 33.0404 -10.6152
375 2 49.5483 37.0837 7.54049 49.5483 37.0837 -12.4595
376 1 50.0898 34.8608 8.48251 50.0898 34.8608 -11.5175
377 2 48.9079 34.0606 6.47535 48.9079 34.0606 -13.5246
378 2 52.3479 35.0788 7.44162 52.3479 35.0788 -12.5584
379 1 50.7422 37.871 9.64709 -0.668531 37.871 -10.3529
380 2 0.920992 38.1106 -8.37167 0.920992 38.1106 -8.37167
381 2 1.41022 37.6943 8.24092 1.41022 37.6943 -11.7591
382 1 2.79378 38.9916 -9.82462 2.79378 38.9916 -9.82462
383 2 4.86178 38.7595 -8.27175 4.86178 38.7595 -8.27175
384 2 3.08455 36.5961 -9.64821 3.08455 36.5961 -9.64821
385 1 6.58123 6.17706 -6.20052 6.58123 6.17706 13.7995
386 2 7.74073 5.2167 -4.2261 7.74073 5.2167 15.7739
387 2 8.93381 6.33352 -7.09385 8.93381 6.33352 12.9061
388 1 9.33265 7.1616 -4.71223 9.33265 7.1616 15.2878
389 2 10.4388 5.23761 -3.85233 10.4388 5.23761 16.1477
390 2 11.3508 7.7547 -6.04823 11.3508 7.7547 13.9518
391 1 12.3649 5.52431 -5.3184 12.3649 5.52431 14.6816
392 2 14.9559 5.60358 -4.16755 14.9559 5.60358 15.8324
393 2 14.2095 6.10461 -6.89802 14.2095 6.10461 13.102
394 1 14.9079 39.2924 9.24218 14.9079 39.2924 -10.7578
395 2 16.9391 38.6238 10.6214 16.9391 38.6238 -9.37857
396 2 16.4015 41.162 8.26878 16.4015 41.162 -11.7312
397 1 17.6619 4.9338 -4.20224 17.6619 4.9338 15.7978
398 2 19.2556 2.94416 -4.05655 19.2556 2.94416 15.9434
399 2 21.3384 5.42448 -3.98374 21.3384 5.42448 16.0163
400 1 20.9913 39.224 9.38515 20.9913 39.224 -10.6149
401 2 22.1868 39.4985 -8.60756 22.1868 39.4985 -8.60756
402 2 23.0604 40.079 8.25142 23.0604 40.079 -11.7486
403 1 23.6455 5.655 -5.10614 23.6455 5.655 14.8939
404 2 25.7301 4.68951 -4.05857 25.7301 4.68951 15.9414
405 2 24.7389 6.02542 -7.3434 24.7389 6.02542 12.6566
406 1 27.0945 39.4603 9.09771 27.0945 39.4603 -10.9023
407 2 30.8793 38.3861 -9.35017 30.8793 38.3861 -9.35017
408 2 29.2565 40.5015 8.19315 29.2565 40.5015 -11.8068
409 1 30.078 38.1709 8.30768 30.078 38.1709 -11.6923
410 2 33.81 37.1234 9.82828 33.81 37.1234 -10.1717
411 2 32.1501 39.257 7.42561 32.1501 39.257 -12.5744
412 1 32.935 39.5322 9.78238 32.935 39.5322 -10.2176
413 2 35.2177 39.1946 -8.72233 35.2177 39.1946 -8.72233
414 2 34.7706 40.478 8.27216 34.7706 40.478 -11.7278
415 1 35.9148 38.2768 8.98084 35.9148 38.2768 -11.0192
416 2 37.8161 37.6206 -9.47422 37.8161 37.6206 -9.47422
417 2 37.9014 38.9582 7.50907 37.9014 38.9582 -12.4909
418 1 38.8589 39.664 9.72016 38.8589 39.664 -10.2798
419 2 40.6056 38.4711 -8.69751 40.6056 38.4711 -8.69751
420 2 41.0974 39.9431 8.4363 41.0974 39.9431 -11.5637
421 1 41.7493 37.6959 9.26055 41.7493 37.6959 -10.7394
422 2 43.6805 36.863 -9.42905 43.6805 36.863 -9.42905
423 2 43.4966 38.0623 7.63284 43.4966 38.0623 -12.3672
424 1 44.742 38.9146 9.64909 44.742 38.9146 -10.3509
425 2 46.754 37.9845 -8.84805 46.754 37.9845 -8.84805
426 2 46.9664 39.1158 7.97985 46.9664 39.1158 -12.0201
427 1 47.4962 36.9064 8.95418 47.4962 36.9064 -11.0458
428 2 49.2166 35.9468 -9.43476 49.2166 35.9468 -9.43476
429 2 0.506536 35.5613 10.0914 51.9173 35.5613 -9.9086
430 1 48.0549 39.8933 -9.81973 48.0549 39.8933 -9.81973
431 2 49.6536 38.7264 -8.09636 49.6536 38.7264 -8.09636
432 2 50.3864 40.2081 8.94326 50.3864 40.2081 -11.0567
433 1 51.4319 40.5667 -8.61732 0.021093 40.5667 -8.61732
434 2 2.3818 40.1987 -7.55349 2.3818 40.1987 -7.55349
435 2 1.61046 41.0714 9.44736 1.61046 41.0714 -10.5526
436 1 3.0796 42.2917 -8.81213 3.0796 42.2917 -8.81213
437 2 5.10551 41.6256 -7.38667 5.10551 41.6256 -7.38667
438 2 5.12816 42.8539 9.70174 5.12816 42.8539 -10.2983
439 1 5.92331 40.5786 -9.47859 5.92331 40.5786 -9.47859
440 2 7.90385 40.4536 -7.93835 7.90385 40.4536 -7.93835
441 2 9.81222 40.0556 9.62431 9.81222 40.0556 -10.3757
442 1 9.18407 42.2656 -9.38188 9.18407 42.2656 -9.38188
443 2 11.0776 41.6651 -7.67205 11.0776 41.6651 -7.67205
444 2 11.3528 42.8915 9.44243 11.3528 42.8915 -10.5576
445 1 12.1528 40.7605 -9.63544 12.1528 40.7605 -9.63544
446 2 14.4921 40.362 -8.60952 14.4921 40.362 -8.60952
447 2 13.5751 41.2929 8.49526 13.5751 41.2929 -11.5047
448 1 15.1062 42.4892 -9.70505 15.1062 42.4892 -9.70505
449 2 16.8582 41.527 -7.79304 16.8582 41.527 -7.79304
450 2 17.4511 43.3754 9.45183 17.4511 43.3754 -10.5482
451 1 17.9841 40.7776 10.0202 17.9841 40.7776 -9.97983
452 2 19.5554 39.8348 -8.34236 19.5554 39.8348 -8.34236
453 2 20.2639 41.555 9.01081 20.2639 41.555 -10.9892
454 1 21.0969 41.8831 -8.62468 21.0969 41.8831 -8.62468
455 2 23.4898 41.5732 -7.35348 23.4898 41.5732 -7.35348
456 2 22.8893 42.6454 9.58207 22.8893 42.6454 -10.4179
457 1 24.2069 40.6056 -9.606 24.2069 40.6056 -9.606
458 2 27.6758 39.8443 -8.59869 27.6758 39.8443 -8.59869
459 2 26.0308 41.7569 8.98959 26.0308 41.7569 -11.0104
460 1 27.0369 42.3258 -8.89886 27.0369 42.3258 -8.89886
461 2 28.9372 41.8885 -7.30925 28.9372 41.8885 -7.30925
462 2 28.8311 42.9272 9.6403 28.8311 42.9272 -10.3597
463 1 29.9274 40.7415 -9.35249 29.9274 40.7415 -9.35249
464 2 32.0939 40.3915 -7.92066 32.0939 40.3915 -7.92066
465 2 31.7288 41.6667 9.09515 31.7288 41.6667 -10.9049
466 1 32.7956 42.5506 -8.91019 32.7956 42.5506 -8.91019
467 2 35.0264 42.4826 -7.64729 35.0264 42.4826 -7.64729
468 2 34.5849 43.1771 9.27498 34.5849 43.1771 -10.725
469 1 36.0091 41.4152 -9.67616 36.0091 41.4152 -9.67616
470 2 38.0088 40.8302 -8.09113 38.0088 40.8302 -8.09113
471 2 37.9383 41.8687 8.68603 37.9383 41.8687 -11.314
472 1 39.2526 42.8914 -9.27659 39.2526 42.8914 -9.27659
473 2 41.1821 42.0494 -7.48345 41.1821 42.0494 -7.48345
474 2 41.2991 42.7256 9.19195 41.2991 42.7256 -10.8081
475 1 41.9943 40.5124 -9.29682 41.9943 40.5124 -9.29682
476 2 44.0455 39.3589 -8.04485 44.0455 39.3589 -8.04485
477 2 43.908 41.5624 9.38513 43.908 41.5624 -10.6149
478 1 41.3898 45.4087 9.16771 41.3898 45.4087 -10.8323
479 2 44.6111 43.0624 -7.12211 44.6111 43.0624 -7.12211
480 2 44.05 44.757 9.47559 44.05 44.757 -10.5244
481 1 45.3856 41.3059 -8.57092 45.3856 41.3059 -8.57092
482 2 47.471 40.3792 -7.40437 47.471 40.3792 -7.40437
483 2 46.9441 42.3845 9.79927 46.9441 42.3845 -10.2007
484 1 48.7238 42.5568 -8.21205 48.7238 42.5568 -8.21205
485 2 50.6556 42.0607 -6.62264 50.6556 42.0607 -6.62264
486 2 50.651 42.799 10.1957 50.651 42.799 -9.80433
487 1 51.7851 43.8808 -7.91277 0.374374 43.8808 -7.91277
488 2 2.46949 43.2991 -6.60779 2.46949 43.2991 -6.60779
489 2 2.0496 44.4192 -9.65285 2.0496 44.4192 -9.65285
490 1 3.48788 45.3665 -7.77471 3.48788 45.3665 -7.77471
491 2 5.4193 44.6107 -6.28307 5.4193 44.6107 -6.28307
492 2 5.5155 45.8503 -9.19007 5.5155 45.8503 -9.19007
493 1 6.33147 43.6876 -8.38721 6.33147 43.6876 -8.38721
494 2 8.35204 43.132 -6.97577 8.35204 43.132 -6.97577
495 2 8.22137 44.4321 -10.0925 8.22137 44.4321 -10.0925
496 1 9.33042 45.2944 -7.8883 9.33042 45.2944 -7.8883
497 2 11.213 44.5918 -6.30745 11.213 44.5918 -6.30745
498 2 11.36 45.8225 -9.22548 11.36 45.8225 -9.22548
499 1 12.2768 43.7195 -8.36723 12.2768 43.7195 -8.36723
500 2 14.4954 42.9605 -7.25773 14.4954 42.9605 -7.25773
501 2 14.0373 44.7617 -9.93433 14.0373 44.7617 -9.93433
502 1 15.1713 45.2371 -7.75037 15.1713 45.2371 -7.75037
503 2 16.9927 44.475 -6.15125 16.9927 44.475 -6.15125
504 2 17.2116 45.9447 -9.02491 17.2116 45.9447 -9.02491
505 1 18.151 43.6847 -8.24808 18.151 43.6847 -8.24808
506 2 20.0079 43.014 -6.62752 20.0079 43.014 -6.62752
507 2 20.2482 44.0834 -9.6737 20.2482 44.0834 -9.6737
508 1 21.0464 45.1189 -7.56049 21.0464 45.1189 -7.56049
509 2 23.0226 44.5527 -6.22186 23.0226 44.5527 -6.22186
510 2 22.8529 45.9851 -9.1485 22.8529 45.9851 -9.1485
511 1 24.0035 43.8253 -8.45681 24.0035 43.8253 -8.45681
512 2 25.7959 43.322 -6.83609 25.7959 43.322 -6.83609
513 2 26.0343 44.5205 -9.86097 26.0343 44.5205 -9.86097
514 1 26.9174 45.4095 -7.67659 26.9174 45.4095 -7.67659
515 2 28.7652 44.7719 -6.19373 28.7652 44.7719 -6.19373
516 2 28.7031 46.1609 -9.20495 28.7031 46.1609 -9.20495
517 1 29.8568 43.9362 -8.33795 29.8568 43.9362 -8.33795
518 2 31.7112 43.3582 -6.81651 31.7112 43.3582 -6.81651
519 2 31.6757 44.6224 10.1679 31.6757 44.6224 -9.83213
520 1 32.6213 45.5227 -7.62541 32.6213 45.5227 -7.62541
521 2 34.9268 45.1682 -6.58896 34.9268 45.1682 -6.58896
522 2 34.1212 46.34 -9.56154 34.1212 46.34 -9.56154
523 1 35.5844 44.481 -8.91857 35.5844 44.481 -8.91857
524 2 37.7835 44.337 -7.57587 37.7835 44.337 -7.57587
525 2 36.5455 45.9038 9.18697 36.5455 45.9038 -10.813
526 1 38.4267 46.2074 -9.11051 38.4267 46.2074 -9.11051
527 2 41.0226 45.0967 -8.47273 41.0226 45.0967 -8.47273
528 2 38.9614 44.6263 8.84264 38.9614 44.6263 -11.1574
529 1 42.8843 43.3167 -8.87362 42.8843 43.3167 -8.87362
530 2 39.3467 46.7509 -6.9167 39.3467 46.7509 -6.9167
531 2 40.0096 47.6495 9.46226 40.0096 47.6495 -10.5377
532 1 43.7215 46.5515 -8.6846 43.7215 46.5515 -8.6846
533 2 45.1728 45.7897 -6.71751 45.1728 45.7897 -6.71751
534 2 45.9156 46.7937 -9.78608 45.9156 46.7937 -9.78608
535 1 46.1619 44.5407 -8.63311 46.1619 44.5407 -8.63311
536 2 47.521 44.0247 -6.54337 47.521 44.0247 -6.54337
537 2 48.382 44.6473 -9.6242 48.382 44.6473 -9.6242
538 1 49.0753 45.6695 -7.53693 49.0753 45.6695 -7.53693
539 2 50.8882 45.1905 -5.95582 50.8882 45.1905 -5.95582
540 2 51.1298 46.0124 -9.08709 51.1298 46.0124 -9.08709