ITEM: TIMESTEP
2271000
ITEM: NUMBER OF ATOMS
810
ITEM: BOX BOUNDS pp pp pp
8.0341777045796159e-01 5.2214187229542503e+01
-4.8040694831459163e+00 5.5820284483144782e+01
-1.0000000000000000e+01 1.0000000000000000e+01
ITEM: ATOMS id type x y z xu yu zu
1 1 1.05839 55.2282 1.14398 1.05839 -5.39617 1.14398
2 2 3.0891 55.1457 2.48947 3.0891 -5.47865 2.48947
3 2 2.63554 55.3164 -0.768541 2.63554 -5.30792 -0.768541
4 1 3.91466 -3.79763 0.688467 3.91466 -3.79763 0.688467
5 2 6.00233 -3.79428 1.99802 6.00233 -3.79428 1.99802
6 2 5.63612 -3.83812 -1.24485 5.63612 -3.83812 -1.24485
7 1 6.79554 55.1306 0.334285 6.79554 -5.49372 0.334285
8 2 8.83372 55.252 1.64041 8.83372 -5.3724 1.64041
9 2 8.26862 55.3166 -1.63557 8.26862 -5.30773 -1.63557
10 1 9.53799 -3.77159 -0.233541 9.53799 -3.77159 -0.233541
11 2 11.4357 -3.61275 1.40968 11.4357 -3.61275 1.40968
12 2 11.3516 -3.88556 -1.91242 11.3516 -3.88556 -1.91242
13 1 12.3242 55.2899 -0.190594 12.3242 -5.33447 -0.190594
14 2 14.3175 55.3779 1.38762 14.3175 -5.2465 1.38762
15 2 14.2918 55.2299 -1.79849 14.2918 -5.39444 -1.79849
16 1 15.3068 -3.73853 -0.326655 15.3068 -3.73853 -0.326655
17 2 17.2556 -3.76195 1.23001 17.2556 -3.76195 1.23001
18 2 17.1418 -3.79974 -1.99556 17.1418 -3.79974 -1.99556
19 1 18.2441 55.2686 -0.463402 18.2441 -5.35573 -0.463402
20 2 20.1602 55.3451 1.26012 20.1602 -5.27923 1.26012
21 2 20.2394 55.189 -2.05431 20.2394 -5.4354 -2.05431
22 1 21.1397 -3.68186 -0.458679 21.1397 -3.68186 -0.458679
23 2 22.8472 -3.64943 1.30607 22.8472 -3.64943 1.30607
24 2 23.051 -3.52177 -1.9441 23.051 -3.52177 -1.9441
25 1 23.9207 55.4009 -0.29458 23.9207 -5.22343 -0.29458
26 2 25.5557 55.3682 1.57499 25.5557 -5.25616 1.57499
27 2 26.0351 55.4181 -1.57032 26.0351 -5.20629 -1.57032
28 1 26.7761 -3.69837 0.143289 26.7761 -3.69837 0.143289
29 2 28.6143 -3.67584 1.91199 28.6143 -3.67584 1.91199
30 2 28.7118 -3.7987 -1.28458 28.7118 -3.7987 -1.28458
31 1 29.642 55.1557 0.345027 29.642 -5.46863 0.345027
32 2 31.2653 55.2611 2.31239 31.2653 -5.36325 2.31239
33 2 31.8569 55.3334 -0.902656 31.8569 -5.29094 -0.902656
34 1 32.428 -3.7323 0.900308 32.428 -3.7323 0.900308
35 2 34.1176 -3.7114 2.79345 34.1176 -3.7114 2.79345
36 2 34.6289 -3.6377 -0.471206 34.6289 -3.6377 -0.471206
37 1 35.2773 55.3301 1.29099 35.2773 -5.29428 1.29099
38 2 36.9632 55.4946 3.18169 36.9632 -5.12975 3.18169
39 2 37.4446 55.3395 -0.0917646 37.4446 -5.28485 -0.0917646
40 1 38.103 -3.6096 1.66413 38.103 -3.6096 1.66413
41 2 39.9933 -3.39395 3.35026 39.9933 -3.39395 3.35026
42 2 40.0699 -3.76454 0.098931 40.0699 -3.76454 0.098931
43 1 40.9507 55.4213 1.94465 40.9507 -5.20304 1.94465
44 2 43.1279 55.4631 3.30983 43.1279 -5.16122 3.30983
45 2 42.7144 55.0971 0.166215 42.7144 -5.52726 0.166215
46 1 43.7934 -3.71504 1.44052 43.7934 -3.71504 1.44052
47 2 45.8117 -3.45649 2.97457 45.8117 -3.45649 2.97457
48 2 45.5248 -3.93796 -0.288431 45.5248 -3.93796 -0.288431
49 1 46.7155 55.2747 1.52718 46.7155 -5.34969 1.52718
50 2 48.7533 55.297 3.0304 48.7533 -5.32732 3.0304
51 2 48.6143 55.1877 -0.174491 48.6143 -5.43667 -0.174491
52 1 49.5485 -3.64372 1.33289 49.5485 -3.64372 1.33289
53 2 51.6678 -3.72217 2.87833 51.6678 -3.72217 2.87833
54 2 51.3711 -3.80829 -0.399012 51.3711 -3.80829 -0.399012
55 1 1.07969 -2.14358 1.07719 1.07969 -2.14358 1.07719
56 2 3.12273 -2.26578 2.46137 3.12273 -2.26578 2.46137
57 2 2.90003 -2.05917 -0.751577 2.90003 -2.05917 -0.751577
58 1 3.86636 -0.462477 0.885423 3.86636 -0.462477 0.885423
59 2 5.95606 -0.528895 2.1649 5.95606 -0.528895 2.1649
60 2 5.45279 -0.395149 -1.081 5.45279 -0.395149 -1.081
61 1 6.6847 -2.13735 0.255382 6.6847 -2.13735 0.255382
62 2 8.85048 -2.03889 1.55023 8.85048 -2.03889 1.55023
63 2 8.3123 -1.97642 -1.5566 8.3123 -1.97642 -1.5566
64 1 9.48346 -0.422859 -0.0840147 9.48346 -0.422859 -0.0840147
65 2 11.5238 -0.468005 1.36874 11.5238 -0.468005 1.36874
66 2 11.4037 -0.327814 -1.8919 11.4037 -0.327814 -1.8919
67 1 12.3847 -2.09972 -0.38769 12.3847 -2.09972 -0.38769
68 2 14.3738 -2.15764 1.29375 14.3738 -2.15764 1.29375
69 2 14.4532 -2.08293 -1.93282 14.4532 -2.08293 -1.93282
70 1 15.2927 -0.35193 -0.288284 15.2927 -0.35193 -0.288284
71 2 17.2276 -0.514338 1.32057 17.2276 -0.514338 1.32057
72 2 17.1757 -0.407778 -1.93697 17.1757 -0.407778 -1.93697
73 1 18.1325 -2.13319 -0.355653 18.1325 -2.13319 -0.355653
74 2 20.0906 -2.21535 1.35235 20.0906 -2.21535 1.35235
75 2 20.0496 -1.9508 -1.96108 20.0496 -1.9508 -1.96108
76 1 21.0754 -0.498815 -0.116297 21.0754 -0.498815 -0.116297
77 2 22.849 -0.36906 1.45707 22.849 -0.36906 1.45707
78 2 22.9463 -0.382265 -1.73506 22.9463 -0.382265 -1.73506
79 1 23.9246 -1.93335 -0.104362 23.9246 -1.93335 -0.104362
80 2 25.7626 -1.9342 1.57941 25.7626 -1.9342 1.57941
81 2 25.996 -2.27209 -1.65044 25.996 -2.27209 -1.65044
82 1 26.7098 -0.47692 -0.168406 26.7098 -0.47692 -0.168406
83 2 28.4805 -0.24972 1.72583 28.4805 -0.24972 1.72583
84 2 28.7567 -0.68934 -1.52482 28.7567 -0.68934 -1.52482
85 1 29.6129 -2.02994 0.45684 29.6129 -2.02994 0.45684
86 2 31.4859 -1.78007 2.22962 31.4859 -1.78007 2.22962
87 2 31.643 -2.32324 -1.01517 31.643 -2.32324 -1.01517
88 1 32.5464 -0.427145 0.430001 32.5464 -0.427145 0.430001
89 2 34.0557 -0.248429 2.44269 34.0557 -0.248429 2.44269
90 2 34.7743 -0.534266 -0.6519 34.7743 -0.534266 -0.6519
91 1 35.2634 -2.03615 1.30952 35.2634 -2.03615 1.30952
92 2 37.1527 -1.74786 3.11897 37.1527 -1.74786 3.11897
93 2 37.3259 -2.16136 -0.0981873 37.3259 -2.16136 -0.0981873
94 1 38.1162 -0.355956 1.37687 38.1162 -0.355956 1.37687
95 2 40.0929 -0.247787 2.99711 40.0929 -0.247787 2.99711
96 2 39.9631 -0.609903 -0.233668 39.9631 -0.609903 -0.233668
97 1 40.9884 -1.94282 1.54538 40.9884 -1.94282 1.54538
98 2 42.8818 -2.01946 3.07536 42.8818 -2.01946 3.07536
99 2 42.7615 -1.9907 -0.164767 42.7615 -1.9907 -0.164767
100 1 43.7909 -0.348622 1.30201 43.7909 -0.348622 1.30201
101 2 46.0601 -0.317314 2.81638 46.0601 -0.317314 2.81638
102 2 45.5333 -0.435981 -0.467388 45.5333 -0.435981 -0.467388
103 1 46.7137 -2.11552 1.03256 46.7137 -2.11552 1.03256
104 2 48.6315 -1.94616 2.80404 48.6315 -1.94616 2.80404
105 2 48.6995 -2.32439 -0.491138 48.6995 -2.32439 -0.491138
106 1 49.6333 -0.533261 1.07231 49.6333 -0.533261 1.07231
107 2 51.45 -0.613543 2.70015 51.45 -0.613543 2.70015
108 2 51.4745 -0.49807 -0.63874 51.4745 -0.49807 -0.63874
109 1 1.00273 1.09735 1.05755 1.00273 1.09735 1.05755
110 2 3.03557 1.15393 2.59668 3.03557 1.15393 2.59668
111 2 2.80552 1.16608 -0.768551 2.80552 1.16608 -0.768551
112 1 3.90331 2.79146 0.809874 3.90331 2.79146 0.809874
113 2 6.01465 2.71128 2.22849 6.01465 2.71128 2.22849
114 2 5.59632 2.9578 -1.03894 5.59632 2.9578 -1.03894
115 1 6.73435 1.14274 0.373893 6.73435 1.14274 0.373893
116 2 8.77146 1.02414 1.78806 8.77146 1.02414 1.78806
117 2 8.47325 1.46915 -1.45323 8.47325 1.46915 -1.45323
118 1 9.5692 2.81617 0.354841 9.5692 2.81617 0.354841
119 2 11.715 2.74888 1.64379 11.715 2.74888 1.64379
120 2 11.2191 3.1045 -1.50032 11.2191 3.1045 -1.50032
121 1 12.3973 1.23282 -0.262594 12.3973 1.23282 -0.262594
122 2 14.3391 1.13118 1.38667 14.3391 1.13118 1.38667
123 2 14.4137 1.29329 -1.84236 14.4137 1.29329 -1.84236
124 1 15.3197 2.82361 -0.195851 15.3197 2.82361 -0.195851
125 2 17.1966 2.5875 1.53097 17.1966 2.5875 1.53097
126 2 17.2913 2.99329 -1.74522 17.2913 2.99329 -1.74522
127 1 18.1738 1.15404 -0.242339 18.1738 1.15404 -0.242339
128 2 19.9039 1.15278 1.57892 19.9039 1.15278 1.57892
129 2 20.2016 1.18292 -1.68154 20.2016 1.18292 -1.68154
130 1 20.9393 2.76643 0.0318921 20.9393 2.76643 0.0318921
131 2 22.8797 2.79199 1.60877 22.8797 2.79199 1.60877
132 2 22.9183 2.96606 -1.60559 22.9183 2.96606 -1.60559
133 1 23.8759 1.2864 -0.167423 23.8759 1.2864 -0.167423
134 2 25.8318 1.19519 1.47267 25.8318 1.19519 1.47267
135 2 25.8129 1.21752 -1.74908 25.8129 1.21752 -1.74908
136 1 26.752 2.82288 -0.0667504 26.752 2.82288 -0.0667504
137 2 28.6591 2.83884 1.56128 28.6591 2.83884 1.56128
138 2 28.7467 2.82544 -1.63173 28.7467 2.82544 -1.63173
139 1 29.5383 1.1759 0.00601188 29.5383 1.1759 0.00601188
140 2 31.2117 1.11837 1.85744 31.2117 1.11837 1.85744
141 2 31.6857 1.2563 -1.26207 31.6857 1.2563 -1.26207
142 1 32.39 2.84316 0.503012 32.39 2.84316 0.503012
143 2 34.162 3.03628 2.31363 34.162 3.03628 2.31363
144 2 34.5829 2.87896 -0.988194 34.5829 2.87896 -0.988194
145 1 35.3233 1.35157 0.856101 35.3233 1.35157 0.856101
146 2 37.0105 1.40648 2.67618 37.0105 1.40648 2.67618
147 2 37.4237 1.26597 -0.457272 37.4237 1.26597 -0.457272
148 1 38.1063 2.94271 1.08328 38.1063 2.94271 1.08328
149 2 40.042 3.01311 2.65734 40.042 3.01311 2.65734
150 2 40.0948 2.73286 -0.499884 40.0948 2.73286 -0.499884
151 1 41.0339 1.2628 1.20412 41.0339 1.2628 1.20412
152 2 42.9614 1.48878 2.81279 42.9614 1.48878 2.81279
153 2 42.7802 1.13764 -0.450146 42.7802 1.13764 -0.450146
154 1 43.8889 2.91021 1.00604 43.8889 2.91021 1.00604
155 2 45.7863 2.81915 2.52824 45.7863 2.81915 2.52824
156 2 45.6443 2.76859 -0.748781 45.6443 2.76859 -0.748781
157 1 46.707 1.1245 0.907457 46.707 1.1245 0.907457
158 2 48.58 1.26054 2.5254 48.58 1.26054 2.5254
159 2 48.5303 1.04221 -0.670928 48.5303 1.04221 -0.670928
160 1 49.5769 2.88231 0.780944 49.5769 2.88231 0.780944
161 2 51.3918 3.01028 2.48953 51.3918 3.01028 2.48953
162 2 51.55 2.73759 -0.691832 51.55 2.73759 -0.691832
163 1 1.03464 4.42757 0.77575 1.03464 4.42757 0.77575
164 2 3.02902 4.53294 2.36021 3.02902 4.53294 2.36021
165 2 3.06698 4.32922 -0.832997 3.06698 4.32922 -0.832997
166 1 3.96281 6.1523 0.622227 3.96281 6.1523 0.622227
167 2 5.83561 6.09268 2.32585 5.83561 6.09268 2.32585
168 2 5.8033 6.24328 -0.975214 5.8033 6.24328 -0.975214
169 1 6.77395 4.53689 0.602011 6.77395 4.53689 0.602011
170 2 8.72207 4.45732 2.18317 8.72207 4.45732 2.18317
171 2 8.51575 4.6743 -1.17007 8.51575 4.6743 -1.17007
172 1 9.59972 6.10363 0.543603 9.59972 6.10363 0.543603
173 2 11.7294 5.96554 2.08397 11.7294 5.96554 2.08397
174 2 11.2568 6.29413 -1.20197 11.2568 6.29413 -1.20197
175 1 12.4834 4.5372 0.0998201 12.4834 4.5372 0.0998201
176 2 14.3747 4.29322 1.7654 14.3747 4.29322 1.7654
177 2 14.4202 4.84276 -1.45161 14.4202 4.84276 -1.45161
178 1 15.3801 6.11579 0.48924 15.3801 6.11579 0.48924
179 2 17.3274 5.92163 1.99585 17.3274 5.92163 1.99585
180 2 17.2704 6.21054 -1.16735 17.2704 6.21054 -1.16735
181 1 18.2236 4.46708 0.137213 18.2236 4.46708 0.137213
182 2 20.1107 4.43747 1.6737 20.1107 4.43747 1.6737
183 2 20.067 4.47471 -1.52498 20.067 4.47471 -1.52498
184 1 21.1055 6.1237 0.0517307 21.1055 6.1237 0.0517307
185 2 22.9897 6.04705 1.83761 22.9897 6.04705 1.83761
186 2 23.051 6.20125 -1.50829 23.051 6.20125 -1.50829
187 1 23.9414 4.3782 0.124306 23.9414 4.3782 0.124306
188 2 25.9558 4.37897 1.72343 25.9558 4.37897 1.72343
189 2 25.8074 4.49545 -1.44558 25.8074 4.49545 -1.44558
190 1 26.7864 6.16899 0.276742 26.7864 6.16899 0.276742
191 2 28.6146 5.99207 1.90971 28.6146 5.99207 1.90971
192 2 28.7932 6.4174 -1.26946 28.7932 6.4174 -1.26946
193 1 29.7151 4.54353 0.0335234 29.7151 4.54353 0.0335234
194 2 31.2786 4.42795 2.03262 31.2786 4.42795 2.03262
195 2 31.9109 4.69095 -1.14336 31.9109 4.69095 -1.14336
196 1 32.4415 6.23678 0.658533 32.4415 6.23678 0.658533
197 2 34.28 6.21125 2.35282 34.28 6.21125 2.35282
198 2 34.4706 6.4738 -0.857508 34.4706 6.4738 -0.857508
199 1 35.2405 4.56583 0.66639 35.2405 4.56583 0.66639
200 2 36.991 4.72688 2.44149 36.991 4.72688 2.44149
201 2 37.3556 4.55823 -0.669495 37.3556 4.55823 -0.669495
202 1 38.2464 6.2495 0.995191 38.2464 6.2495 0.995191
203 2 40.1798 6.03711 2.67045 40.1798 6.03711 2.67045
204 2 40.2569 6.35003 -0.654749 40.2569 6.35003 -0.654749
205 1 41.0531 4.51296 0.957815 41.0531 4.51296 0.957815
206 2 42.9102 4.65555 2.51968 42.9102 4.65555 2.51968
207 2 42.9622 4.587 -0.74952 42.9622 4.587 -0.74952
208 1 44.019 6.16789 0.78274 44.019 6.16789 0.78274
209 2 45.8335 6.12731 2.36647 45.8335 6.12731 2.36647
210 2 45.8864 6.13852 -0.849947 45.8864 6.13852 -0.849947
211 1 46.7632 4.46708 0.781421 46.7632 4.46708 0.781421
212 2 48.7049 4.6333 2.33284 48.7049 4.6333 2.33284
213 2 48.6766 4.40927 -0.901207 48.6766 4.40927 -0.901207
214 1 49.7048 6.17687 0.539635 49.7048 6.17687 0.539635
215 2 51.4795 6.10225 2.40929 51.4795 6.10225 2.40929
216 2 51.6408 6.10347 -0.922071 51.6408 6.10347 -0.922071
217 1 1.15885 7.77633 0.80919 1.15885 7.77633 0.80919
218 2 3.0049 7.84755 2.38478 3.0049 7.84755 2.38478
219 2 3.11061 7.9382 -0.921517 3.11061 7.9382 -0.921517
220 1 4.01168 9.58223 0.7958 4.01168 9.58223 0.7958
221 2 5.95689 9.38705 2.53105 5.95689 9.38705 2.53105
222 2 6.01162 9.65591 -0.803675 6.01162 9.65591 -0.803675
223 1 6.74076 7.85249 0.777947 6.74076 7.85249 0.777947
224 2 8.65697 7.51631 2.34527 8.65697 7.51631 2.34527
225 2 8.56118 8.04736 -0.892203 8.56118 8.04736 -0.892203
226 1 9.66992 9.45287 0.98998 9.66992 9.45287 0.98998
227 2 11.8221 9.34787 2.40183 11.8221 9.34787 2.40183
228 2 11.4915 9.72918 -0.852593 11.4915 9.72918 -0.852593
229 1 12.54 7.88691 0.491028 12.54 7.88691 0.491028
230 2 14.4497 7.70248 2.17479 14.4497 7.70248 2.17479
231 2 14.5717 7.96548 -1.01121 14.5717 7.96548 -1.01121
232 1 15.483 9.47503 0.678113 15.483 9.47503 0.678113
233 2 17.4123 9.34792 2.33487 17.4123 9.34792 2.33487
234 2 17.3932 9.53531 -0.927197 17.3932 9.53531 -0.927197
235 1 18.3046 7.71647 0.534052 18.3046 7.71647 0.534052
236 2 20.2828 7.59201 1.9669 20.2828 7.59201 1.9669
237 2 20.1177 7.93738 -1.27969 20.1177 7.93738 -1.27969
238 1 21.1271 9.42412 0.449519 21.1271 9.42412 0.449519
239 2 23.1511 9.5857 1.96 23.1511 9.5857 1.96
240 2 22.8993 9.3336 -1.27506 22.8993 9.3336 -1.27506
241 1 23.9891 7.75776 0.308137 23.9891 7.75776 0.308137
242 2 25.9121 7.75967 1.92978 25.9121 7.75967 1.92978
243 2 25.8738 7.84459 -1.33325 25.8738 7.84459 -1.33325
244 1 26.8875 9.35772 0.319243 26.8875 9.35772 0.319243
245 2 28.6357 9.34011 2.17894 28.6357 9.34011 2.17894
246 2 28.7792 9.41094 -1.24929 28.7792 9.41094 -1.24929
247 1 29.713 7.78483 0.583753 29.713 7.78483 0.583753
248 2 31.4749 7.74663 2.40996 31.4749 7.74663 2.40996
249 2 31.7634 7.98128 -0.86373 31.7634 7.98128 -0.86373
250 1 32.5629 9.45199 0.966483 32.5629 9.45199 0.966483
251 2 34.4558 9.62639 2.5767 34.4558 9.62639 2.5767
252 2 34.3855 9.49012 -0.739034 34.3855 9.49012 -0.739034
253 1 35.3975 7.94684 0.952135 35.3975 7.94684 0.952135
254 2 37.2385 7.90999 2.55097 37.2385 7.90999 2.55097
255 2 37.2483 7.90016 -0.626586 37.2483 7.90016 -0.626586
256 1 38.3409 9.43089 0.995311 38.3409 9.43089 0.995311
257 2 41.7828 10.2457 1.73814 41.7828 10.2457 1.73814
258 2 40.3198 9.40413 -0.54303 40.3198 9.40413 -0.54303
259 1 41.2746 7.79692 1.09491 41.2746 7.79692 1.09491
260 2 43.2779 7.7245 2.66679 43.2779 7.7245 2.66679
261 2 43.0627 7.94401 -0.640296 43.0627 7.94401 -0.640296
262 1 44.0211 9.47136 1.00393 44.0211 9.47136 1.00393
263 2 46.0717 9.39629 2.46424 46.0717 9.39629 2.46424
264 2 45.833 9.47255 -0.797656 45.833 9.47255 -0.797656
265 1 46.886 7.84082 0.74683 46.886 7.84082 0.74683
266 2 48.9113 7.91837 2.1882 48.9113 7.91837 2.1882
267 2 48.671 7.89803 -0.946788 48.671 7.89803 -0.946788
268 1 49.79 9.52535 0.530951 49.79 9.52535 0.530951
269 2 51.7075 9.55224 2.25815 51.7075 9.55224 2.25815
270 2 51.7394 9.393 -0.974078 51.7394 9.393 -0.974078
271 1 1.11191 11.1327 0.611601 1.11191 11.1327 0.611601
272 2 2.90905 11.0572 2.42631 2.90905 11.0572 2.42631
273 2 3.13296 11.1838 -0.922448 3.13296 11.1838 -0.922448
274 1 3.89371 12.8407 0.93205 3.89371 12.8407 0.93205
275 2 5.77439 12.7913 2.6779 5.77439 12.7913 2.6779
276 2 6.05314 12.8567 -0.622747 6.05314 12.8567 -0.622747
277 1 6.82211 11.197 1.03455 6.82211 11.197 1.03455
278 2 8.57936 10.9989 2.72885 8.57936 10.9989 2.72885
279 2 8.75621 11.2134 -0.563779 8.75621 11.2134 -0.563779
280 1 9.76608 12.7757 1.18893 9.76608 12.7757 1.18893
281 2 11.6554 12.3924 2.70558 11.6554 12.3924 2.70558
282 2 11.6053 13.011 -0.456789 11.6053 13.011 -0.456789
283 1 12.6087 11.1536 0.827274 12.6087 11.1536 0.827274
284 2 14.5664 10.9344 2.48094 14.5664 10.9344 2.48094
285 2 14.5078 11.1968 -0.817796 14.5078 11.1968 -0.817796
286 1 15.4635 12.7953 0.970611 15.4635 12.7953 0.970611
287 2 17.2966 12.5524 2.55862 17.2966 12.5524 2.55862
288 2 17.3358 13.0209 -0.682308 17.3358 13.0209 -0.682308
289 1 18.2958 11.126 0.784513 18.2958 11.126 0.784513
290 2 20.3833 10.9877 2.09557 20.3833 10.9877 2.09557
291 2 19.9315 11.2521 -1.11853 19.9315 11.2521 -1.11853
292 1 21.1344 12.6929 0.48996 21.1344 12.6929 0.48996
293 2 23.2596 12.8973 1.76953 23.2596 12.8973 1.76953
294 2 22.932 12.5593 -1.44615 22.932 12.5593 -1.44615
295 1 24.0143 11.0447 0.173123 24.0143 11.0447 0.173123
296 2 25.7559 10.991 1.8892 25.7559 10.991 1.8892
297 2 26.0694 11.014 -1.30001 26.0694 11.014 -1.30001
298 1 26.8277 12.7319 0.301049 26.8277 12.7319 0.301049
299 2 28.7673 12.8324 2.1273 28.7673 12.8324 2.1273
300 2 28.9649 12.727 -1.17372 28.9649 12.727 -1.17372
301 1 29.6831 11.1436 0.61321 29.6831 11.1436 0.61321
302 2 31.5142 11.246 2.38689 31.5142 11.246 2.38689
303 2 31.7504 11.0153 -0.823966 31.7504 11.0153 -0.823966
304 1 32.5573 12.7137 0.818354 32.5573 12.7137 0.818354
305 2 34.6254 13.1346 2.13027 34.6254 13.1346 2.13027
306 2 34.5101 12.7436 -0.783816 34.5101 12.7436 -0.783816
307 1 35.4342 11.2041 0.912059 35.4342 11.2041 0.912059
308 2 37.6431 11.7262 1.90273 37.6431 11.7262 1.90273
309 2 37.1619 10.7427 -0.796043 37.1619 10.7427 -0.796043
310 1 38.3144 25.8147 -6.6977 38.3144 25.8147 -6.6977
311 2 39.1368 23.3885 -7.00682 39.1368 23.3885 -7.00682
312 2 40.3693 26.7519 -7.31715 40.3693 26.7519 -7.31715
313 1 41.3034 24.4542 -7.62449 41.3034 24.4542 -7.62449
314 2 41.3144 23.8856 -5.27546 41.3144 23.8856 -5.27546
315 2 43.2536 22.8283 -7.38912 43.2536 22.8283 -7.38912
316 1 43.8285 24.2975 -5.42198 43.8285 24.2975 -5.42198
317 2 45.9037 23.1391 -4.58099 45.9037 23.1391 -4.58099
318 2 45.631 24.7575 -7.1124 45.631 24.7575 -7.1124
319 1 46.7566 11.2042 0.792009 46.7566 11.2042 0.792009
320 2 48.8553 10.9463 2.23615 48.8553 10.9463 2.23615
321 2 48.592 11.2185 -0.878358 48.592 11.2185 -0.878358
322 1 49.4909 12.858 0.803357 49.4909 12.858 0.803357
323 2 51.6604 12.8053 2.22415 51.6604 12.8053 2.22415
324 2 51.4204 12.8932 -0.86571 51.4204 12.8932 -0.86571
325 1 0.987858 14.5713 0.651424 0.987858 14.5713 0.651424
326 2 2.86969 14.5591 2.34571 2.86969 14.5591 2.34571
327 2 2.96222 14.209 -0.811692 2.96222 14.209 -0.811692
328 1 3.84918 16.0681 0.61068 3.84918 16.0681 0.61068
329 2 5.47457 16.0136 2.45194 5.47457 16.0136 2.45194
330 2 6.04639 15.8862 -0.677787 6.04639 15.8862 -0.677787
331 1 6.7537 14.4108 1.1229 6.7537 14.4108 1.1229
332 2 8.47602 13.9427 3.07286 8.47602 13.9427 3.07286
333 2 8.90661 14.7437 -0.173642 8.90661 14.7437 -0.173642
334 1 9.56903 15.9158 2.10766 9.56903 15.9158 2.10766
335 2 11.8321 15.4041 3.41992 11.8321 15.4041 3.41992
336 2 11.3838 16.1974 0.214403 11.3838 16.1974 0.214403
337 1 12.599 14.2881 1.32069 12.599 14.2881 1.32069
338 2 14.4898 14.0767 2.86919 14.4898 14.0767 2.86919
339 2 14.5102 14.6994 -0.36513 14.5102 14.6994 -0.36513
340 1 15.4541 15.996 1.56538 15.4541 15.996 1.56538
341 2 17.5051 15.625 3.14923 17.5051 15.625 3.14923
342 2 17.5118 16.3796 -0.0908955 17.5118 16.3796 -0.0908955
343 1 18.3577 14.3343 1.13628 18.3577 14.3343 1.13628
344 2 20.3895 14.0436 2.52781 20.3895 14.0436 2.52781
345 2 19.9718 14.6117 -0.69223 19.9718 14.6117 -0.69223
346 1 21.1438 15.8993 1.10934 21.1438 15.8993 1.10934
347 2 23.5952 15.9429 1.70977 23.5952 15.9429 1.70977
348 2 22.1912 16.1379 -1.15508 22.1912 16.1379 -1.15508
349 1 24.0127 14.4573 -0.214561 24.0127 14.4573 -0.214561
350 2 25.825 14.4944 1.67873 25.825 14.4944 1.67873
351 2 26.296 14.1312 -1.59685 26.296 14.1312 -1.59685
352 1 26.8292 16.0322 0.113794 26.8292 16.0322 0.113794
353 2 28.282 15.8236 2.09844 28.282 15.8236 2.09844
354 2 29.0733 16.3317 -0.949461 29.0733 16.3317 -0.949461
355 1 29.6752 14.4932 0.523878 29.6752 14.4932 0.523878
356 2 31.6796 14.6517 2.04807 31.6796 14.6517 2.04807
357 2 31.6442 14.1008 -1.09224 31.6442 14.1008 -1.09224
358 1 32.9304 28.8731 -5.00248 32.9304 28.8731 -5.00248
359 2 36.1504 27.4428 -3.37227 36.1504 27.4428 -3.37227
360 2 34.9 29.8391 -5.86247 34.9 29.8391 -5.86247
361 1 35.5788 27.4286 -5.7649 35.5788 27.4286 -5.7649
362 2 38.9963 25.5129 -4.28015 38.9963 25.5129 -4.28015
363 2 37.7854 28.348 -6.43895 37.7854 28.348 -6.43895
364 1 38.5843 28.0447 -4.10448 38.5843 28.0447 -4.10448
365 2 40.384 27.1309 -2.68904 40.384 27.1309 -2.68904
366 2 40.6376 28.7693 -5.48611 40.6376 28.7693 -5.48611
367 1 41.3172 26.3525 -4.97094 41.3172 26.3525 -4.97094
368 2 43.1192 25.4917 -3.39171 43.1192 25.4917 -3.39171
369 2 43.084 26.2683 -6.68799 43.084 26.2683 -6.68799
370 1 44.3546 27.4495 -4.54528 44.3546 27.4495 -4.54528
371 2 46.2349 26.6457 -3.05635 46.2349 26.6457 -3.05635
372 2 46.2939 27.6213 -6.14544 46.2939 27.6213 -6.14544
373 1 46.9082 25.3717 -5.0774 46.9082 25.3717 -5.0774
374 2 48.6816 24.5363 -3.55424 48.6816 24.5363 -3.55424
375 2 49.7207 28.7354 -5.47601 49.7207 28.7354 -5.47601
376 1 50.0073 26.3904 -4.53183 50.0073 26.3904 -4.53183
377 2 48.7659 25.8185 -6.58598 48.7659 25.8185 -6.58598
378 2 52.1635 26.704 -5.87134 52.1635 26.704 -5.87134
379 1 50.6985 29.3376 -3.28776 -0.712283 29.3376 -3.28776
380 2 0.905814 29.8656 -1.40795 0.905814 29.8656 -1.40795
381 2 1.22708 29.1732 -4.72957 1.22708 29.1732 -4.72957
382 1 2.57499 30.8148 -3.05575 2.57499 30.8148 -3.05575
383 2 4.65659 30.2568 -1.57091 4.65659 30.2568 -1.57091
384 2 3.09557 28.4107 -2.79002 3.09557 28.4107 -2.79002
385 1 6.6556 17.6928 1.09591 6.6556 17.6928 1.09591
386 2 7.93077 17.6924 3.1944 7.93077 17.6924 3.1944
387 2 8.98984 17.5764 0.21584 8.98984 17.5764 0.21584
388 1 9.419 19.2926 1.95603 9.419 19.2926 1.95603
389 2 10.6439 17.8268 3.57734 10.6439 17.8268 3.57734
390 2 11.5949 19.4412 0.655079 11.5949 19.4412 0.655079
391 1 12.4848 17.5003 1.99778 12.4848 17.5003 1.99778
392 2 14.5249 17.5216 3.43957 14.5249 17.5216 3.43957
393 2 14.3515 17.9393 0.359282 14.3515 17.9393 0.359282
394 1 14.9603 30.707 -3.5187 14.9603 30.707 -3.5187
395 2 16.9365 30.5175 -1.91469 16.9365 30.5175 -1.91469
396 2 16.2471 32.364 -4.81117 16.2471 32.364 -4.81117
397 1 18.3202 17.6656 1.83902 18.3202 17.6656 1.83902
398 2 20.2337 16.7933 3.21186 20.2337 16.7933 3.21186
399 2 20.0595 18.0412 0.23426 20.0595 18.0412 0.23426
400 1 21.1258 30.6019 -2.85324 21.1258 30.6019 -2.85324
401 2 22.799 30.7538 -0.930926 22.799 30.7538 -0.930926
402 2 23.0478 31.1524 -4.42682 23.0478 31.1524 -4.42682
403 1 23.6224 17.7581 0.0417861 23.6224 17.7581 0.0417861
404 2 25.7491 17.7362 1.56917 25.7491 17.7362 1.56917
405 2 25.0173 16.41 -1.63954 25.0173 16.41 -1.63954
406 1 26.9894 30.8745 -3.26904 26.9894 30.8745 -3.26904
407 2 30.8629 30.1178 -1.92839 30.8629 30.1178 -1.92839
408 2 29.0386 32.1137 -4.27938 29.0386 32.1137 -4.27938
409 1 30.1649 29.85 -4.2684 30.1649 29.85 -4.2684
410 2 33.711 28.9916 -2.73999 33.711 28.9916 -2.73999
411 2 32.1228 31.0792 -5.08651 32.1228 31.0792 -5.08651
412 1 32.9186 31.3741 -2.76798 32.9186 31.3741 -2.76798
413 2 34.9829 30.9669 -1.2318 34.9829 30.9669 -1.2318
414 2 34.9423 32.1269 -4.23882 34.9423 32.1269 -4.23882
415 1 35.9146 30.0159 -3.44825 35.9146 30.0159 -3.44825
416 2 37.8765 29.0947 -1.79974 37.8765 29.0947 -1.79974
417 2 38.0434 30.5272 -4.78783 38.0434 30.5272 -4.78783
418 1 38.9754 31.1303 -2.53974 38.9754 31.1303 -2.53974
419 2 40.8062 30.1046 -1.08842 40.8062 30.1046 -1.08842
420 2 40.9534 31.4524 -4.13937 40.9534 31.4524 -4.13937
421 1 41.66 29.144 -3.31454 41.66 29.144 -3.31454
422 2 43.7454 28.1826 -2.19999 43.7454 28.1826 -2.19999
423 2 43.417 29.691 -5.07253 43.417 29.691 -5.07253
424 1 44.8165 30.3471 -3.08815 44.8165 30.3471 -3.08815
425 2 46.7082 29.2695 -1.88954 46.7082 29.2695 -1.88954
426 2 46.6093 30.8371 -4.79003 46.6093 30.8371 -4.79003
427 1 47.4968 28.5611 -4.17515 47.4968 28.5611 -4.17515
428 2 49.0312 27.5437 -2.45179 49.0312 27.5437 -2.45179
429 2 51.8002 27.0595 -3.04756 51.8002 27.0595 -3.04756
430 1 48.0197 31.3646 -2.59592 48.0197 31.3646 -2.59592
431 2 49.7713 30.4124 -1.0753 49.7713 30.4124 -1.0753
432 2 50.0805 31.6825 -4.08624 50.0805 31.6825 -4.08624
433 1 51.2878 32.3417 -1.89929 -0.12295 32.3417 -1.89929
434 2 2.34107 32.0667 -0.777153 2.34107 32.0667 -0.777153
435 2 1.29469 32.835 -3.82965 1.29469 32.835 -3.82965
436 1 3.09335 33.9249 -2.13557 3.09335 33.9249 -2.13557
437 2 5.22839 33.459 -0.804147 5.22839 33.459 -0.804147
438 2 4.9705 34.2838 -3.88055 4.9705 34.2838 -3.88055
439 1 5.92642 32.2162 -2.72287 5.92642 32.2162 -2.72287
440 2 7.83903 32.0232 -1.10821 7.83903 32.0232 -1.10821
441 2 9.74337 31.3248 -3.29136 9.74337 31.3248 -3.29136
442 1 9.12422 33.7549 -2.55531 9.12422 33.7549 -2.55531
443 2 10.9724 33.6426 -1.0048 10.9724 33.6426 -1.0048
444 2 11.0958 33.8876 -4.21746 11.0958 33.8876 -4.21746
445 1 12.003 32.0847 -2.76523 12.003 32.0847 -2.76523
446 2 14.3302 32.1299 -1.70492 14.3302 32.1299 -1.70492
447 2 13.4992 32.5857 -4.67092 13.4992 32.5857 -4.67092
448 1 15.158 33.9973 -3.28093 15.158 33.9973 -3.28093
449 2 16.8658 33.4553 -1.3181 16.8658 33.4553 -1.3181
450 2 17.4892 34.6083 -4.35772 17.4892 34.6083 -4.35772
451 1 18.0981 32.2686 -3.16138 18.0981 32.2686 -3.16138
452 2 19.8557 32.0514 -1.19339 19.8557 32.0514 -1.19339
453 2 20.4147 32.4807 -4.36654 20.4147 32.4807 -4.36654
454 1 21.1032 33.9055 -2.40038 21.1032 33.9055 -2.40038
455 2 22.9387 33.7039 -0.776492 22.9387 33.7039 -0.776492
456 2 23.0746 34.2072 -3.95021 23.0746 34.2072 -3.95021
457 1 24.093 32.3343 -2.50847 24.093 32.3343 -2.50847
458 2 26.4148 32.054 -1.11971 26.4148 32.054 -1.11971
459 2 25.8331 32.7733 -4.26724 25.8331 32.7733 -4.26724
460 1 26.9494 34.122 -2.26566 26.9494 34.122 -2.26566
461 2 28.6402 33.841 -0.296171 28.6402 33.841 -0.296171
462 2 29.1487 34.6363 -3.38001 29.1487 34.6363 -3.38001
463 1 29.9303 32.5109 -1.96337 29.9303 32.5109 -1.96337
464 2 32.1155 32.342 -0.489674 32.1155 32.342 -0.489674
465 2 31.7127 33.2887 -3.55022 31.7127 33.2887 -3.55022
466 1 32.7123 34.362 -1.595 32.7123 34.362 -1.595
467 2 34.7665 33.8531 -0.155596 34.7665 33.8531 -0.155596
468 2 34.6883 34.9345 -3.18862 34.6883 34.9345 -3.18862
469 1 36.0513 33.0069 -2.14944 36.0513 33.0069 -2.14944
470 2 38.0055 32.3646 -0.453029 38.0055 32.3646 -0.453029
471 2 38.2342 33.2692 -3.62239 38.2342 33.2692 -3.62239
472 1 39.3605 34.3668 -1.46876 39.3605 34.3668 -1.46876
473 2 41.1084 33.0698 0.173978 41.1084 33.0698 0.173978
474 2 41.7431 34.5795 -2.7046 41.7431 34.5795 -2.7046
475 1 42.0502 32.1889 -1.91537 42.0502 32.1889 -1.91537
476 2 44.0413 31.005 -0.752321 44.0413 31.005 -0.752321
477 2 44.007 32.6006 -3.51908 44.007 32.6006 -3.51908
478 1 41.5991 37.0895 -2.10485 41.5991 37.0895 -2.10485
479 2 44.6433 33.9265 0.874783 44.6433 33.9265 0.874783
480 2 44.6244 35.2417 -2.09935 44.6244 35.2417 -2.09935
481 1 45.2882 33.0187 -1.32182 45.2882 33.0187 -1.32182
482 2 47.3545 32.165 -0.281857 47.3545 32.165 -0.281857
483 2 47.1372 33.7136 -3.05667 47.1372 33.7136 -3.05667
484 1 48.6834 34.2049 -1.00938 48.6834 34.2049 -1.00938
485 2 50.7638 33.5839 0.127964 50.7638 33.5839 0.127964
486 2 50.3008 34.5794 -2.8935 50.3008 34.5794 -2.8935
487 1 51.7914 35.5631 -1.15739 0.380586 35.5631 -1.15739
488 2 2.61807 35.1748 -0.0134983 2.61807 35.1748 -0.0134983
489 2 1.99496 35.8791 -3.0953 1.99496 35.8791 -3.0953
490 1 3.47197 37.1322 -1.39205 3.47197 37.1322 -1.39205
491 2 5.51683 36.7962 0.0644618 5.51683 36.7962 0.0644618
492 2 5.20499 37.495 -3.20644 5.20499 37.495 -3.20644
493 1 6.23447 35.417 -2.01127 6.23447 35.417 -2.01127
494 2 8.26851 34.9054 -0.509671 8.26851 34.9054 -0.509671
495 2 8.21855 35.751 -3.6329 8.21855 35.751 -3.6329
496 1 9.19404 36.9631 -1.74986 9.19404 36.9631 -1.74986
497 2 11.3685 36.5136 -0.317538 11.3685 36.5136 -0.317538
498 2 11.1693 37.5453 -3.4049 11.1693 37.5453 -3.4049
499 1 12.0706 35.4207 -2.51044 12.0706 35.4207 -2.51044
500 2 14.3455 34.995 -1.06219 14.3455 34.995 -1.06219
501 2 13.9986 36.1031 -4.10389 13.9986 36.1031 -4.10389
502 1 15.1508 37.0711 -2.0646 15.1508 37.0711 -2.0646
503 2 16.9388 36.6197 -0.236778 16.9388 36.6197 -0.236778
504 2 17.3188 37.5414 -3.40497 17.3188 37.5414 -3.40497
505 1 18.0798 35.5631 -2.12256 18.0798 35.5631 -2.12256
506 2 20.0433 35.1463 -0.524764 20.0433 35.1463 -0.524764
507 2 20.1171 35.8582 -3.67632 20.1171 35.8582 -3.67632
508 1 21.0559 37.1586 -1.756 21.0559 37.1586 -1.756
509 2 23.0064 36.8374 -0.133665 23.0064 36.8374 -0.133665
510 2 23.054 37.6751 -3.31389 23.054 37.6751 -3.31389
511 1 23.9968 35.66 -2.15767 23.9968 35.66 -2.15767
512 2 25.6707 35.1071 -0.319003 25.6707 35.1071 -0.319003
513 2 26.1204 36.271 -3.3869 26.1204 36.271 -3.3869
514 1 26.8365 37.3218 -1.21154 26.8365 37.3218 -1.21154
515 2 28.5059 36.9302 0.744039 28.5059 36.9302 0.744039
516 2 29.0521 37.8621 -2.46212 29.0521 37.8621 -2.46212
517 1 29.7512 35.8299 -1.25139 29.7512 35.8299 -1.25139
518 2 31.5773 35.423 0.432554 31.5773 35.423 0.432554
519 2 31.7759 36.3887 -2.72355 31.7759 36.3887 -2.72355
520 1 32.5941 37.4419 -0.629 32.5941 37.4419 -0.629
521 2 34.4521 36.8253 0.98389 34.4521 36.8253 0.98389
522 2 34.5236 38.127 -2.02195 34.5236 38.127 -2.02195
523 1 35.4969 36.0556 -1.18657 35.4969 36.0556 -1.18657
524 2 37.618 35.5501 0.300015 37.618 35.5501 0.300015
525 2 36.774 37.1578 -3.01012 36.774 37.1578 -3.01012
526 1 38.3571 37.5452 -1.05156 38.3571 37.5452 -1.05156
527 2 40.748 36.433 0.123897 40.748 36.433 0.123897
528 2 39.4445 36.4361 -3.13315 39.4445 36.4361 -3.13315
529 1 42.7697 34.9009 -0.417604 42.7697 34.9009 -0.417604
530 2 38.837 38.1068 1.43956 38.837 38.1068 1.43956
531 2 40.014 39.045 -2.17968 40.014 39.045 -2.17968
532 1 43.4171 37.4391 0.545323 43.4171 37.4391 0.545323
533 2 45.4518 37.0811 2.00975 45.4518 37.0811 2.00975
534 2 45.215 37.8366 -1.09528 45.215 37.8366 -1.09528
535 1 46.1318 35.7969 0.0446608 46.1318 35.7969 0.0446608
536 2 48.2211 35.1546 1.25163 48.2211 35.1546 1.25163
537 2 47.7644 36.2339 -1.82405 47.7644 36.2339 -1.82405
538 1 49.1181 37.1759 0.0859653 49.1181 37.1759 0.0859653