ITEM: TIMESTEP
2259000
ITEM: NUMBER OF ATOMS
810
ITEM: BOX BOUNDS pp pp pp
8.0341777045796159e-01 5.2214187229542503e+01
-4.7744267381538412e+00 5.5790641738152708e+01
-1.0000000000000000e+01 1.0000000000000000e+01
ITEM: ATOMS id type x y z xu yu zu
1 1 0.950361 55.2158 0.899568 0.950361 -5.34926 0.899568
2 2 3.09436 55.2158 2.32226 3.09436 -5.3493 2.32226
3 2 2.64199 55.0802 -0.907439 2.64199 -5.48484 -0.907439
4 1 3.83493 -3.74697 0.497622 3.83493 -3.74697 0.497622
5 2 5.84837 -3.76657 1.95275 5.84837 -3.76657 1.95275
6 2 5.58983 -3.84714 -1.30412 5.58983 -3.84714 -1.30412
7 1 6.65086 55.0984 0.264201 6.65086 -5.46664 0.264201
8 2 8.73359 55.1039 1.6071 8.73359 -5.46114 1.6071
9 2 8.37301 55.2017 -1.69251 8.37301 -5.3634 -1.69251
10 1 9.49684 -3.78627 -0.165598 9.49684 -3.78627 -0.165598
11 2 11.3865 -3.75298 1.53306 11.3865 -3.75298 1.53306
12 2 11.4207 -3.60818 -1.71729 11.4207 -3.60818 -1.71729
13 1 12.3187 55.2189 -0.159802 12.3187 -5.34616 -0.159802
14 2 14.2856 55.1624 1.42053 14.2856 -5.40265 1.42053
15 2 14.2203 55.2064 -1.95801 14.2203 -5.35869 -1.95801
16 1 15.1997 -3.81723 -0.248124 15.1997 -3.81723 -0.248124
17 2 17.3893 -3.70342 1.15331 17.3893 -3.70342 1.15331
18 2 16.9302 -3.80427 -2.02568 16.9302 -3.80427 -2.02568
19 1 18.1224 55.1697 -0.489948 18.1224 -5.39536 -0.489948
20 2 19.9509 55.2586 1.19715 19.9509 -5.3065 1.19715
21 2 20.0752 55.2548 -2.01117 20.0752 -5.31026 -2.01117
22 1 20.9843 -3.68304 -0.325889 20.9843 -3.68304 -0.325889
23 2 22.7073 -3.71136 1.52084 22.7073 -3.71136 1.52084
24 2 23.1007 -3.56094 -1.83148 23.1007 -3.56094 -1.83148
25 1 23.8121 55.2783 -0.15692 23.8121 -5.28673 -0.15692
26 2 25.5448 55.2865 1.62867 25.5448 -5.27856 1.62867
27 2 25.9641 55.2199 -1.47347 25.9641 -5.34513 -1.47347
28 1 26.623 -3.64001 0.246815 26.623 -3.64001 0.246815
29 2 28.323 -3.63607 2.04426 28.323 -3.63607 2.04426
30 2 28.7313 -3.62329 -1.16201 28.7313 -3.62329 -1.16201
31 1 29.6105 55.2237 0.567186 29.6105 -5.34142 0.567186
32 2 31.3127 55.3614 2.4845 31.3127 -5.20372 2.4845
33 2 31.7136 54.889 -0.746272 31.7136 -5.67605 -0.746272
34 1 32.3644 -3.67299 0.704499 32.3644 -3.67299 0.704499
35 2 34.119 -3.63898 2.46927 34.119 -3.63898 2.46927
36 2 34.4482 -3.69556 -0.736314 34.4482 -3.69556 -0.736314
37 1 35.2603 55.2335 0.96735 35.2603 -5.33154 0.96735
38 2 37.0389 55.3399 2.72643 37.0389 -5.22517 2.72643
39 2 37.3394 55.3109 -0.392128 37.3394 -5.25416 -0.392128
40 1 38.1316 -3.63502 1.22177 38.1316 -3.63502 1.22177
41 2 39.9398 -3.39745 2.96277 39.9398 -3.39745 2.96277
42 2 39.9926 -3.72247 -0.334591 39.9926 -3.72247 -0.334591
43 1 40.9568 55.3109 1.41598 40.9568 -5.25421 1.41598
44 2 43.01 55.4233 2.81366 43.01 -5.14178 2.81366
45 2 42.7773 55.3962 -0.484171 42.7773 -5.16889 -0.484171
46 1 43.7477 -3.65348 1.06072 43.7477 -3.65348 1.06072
47 2 45.5771 -3.5576 2.71073 45.5771 -3.5576 2.71073
48 2 45.7864 -3.76065 -0.567558 45.7864 -3.76065 -0.567558
49 1 46.6553 55.3281 1.30695 46.6553 -5.23701 1.30695
50 2 48.522 55.4183 2.92 48.522 -5.14682 2.92
51 2 48.6478 55.2997 -0.310727 48.6478 -5.26537 -0.310727
52 1 49.5205 -3.66676 1.27649 49.5205 -3.66676 1.27649
53 2 51.6023 -3.80494 2.64015 51.6023 -3.80494 2.64015
54 2 51.1991 -3.79875 -0.674921 51.1991 -3.79875 -0.674921
55 1 0.869767 -2.02966 0.733355 0.869767 -2.02966 0.733355
56 2 2.98151 -1.98534 2.20528 2.98151 -1.98534 2.20528
57 2 2.69656 -2.08012 -1.14665 2.69656 -2.08012 -1.14665
58 1 3.69252 -0.395733 0.306451 3.69252 -0.395733 0.306451
59 2 5.70625 -0.377431 1.77586 5.70625 -0.377431 1.77586
60 2 5.46016 -0.480544 -1.38345 5.46016 -0.480544 -1.38345
61 1 6.59683 -2.06507 0.203244 6.59683 -2.06507 0.203244
62 2 8.7332 -2.18875 1.60413 8.7332 -2.18875 1.60413
63 2 8.3515 -1.97494 -1.52159 8.3515 -1.97494 -1.52159
64 1 9.49324 -0.436864 0.00435616 9.49324 -0.436864 0.00435616
65 2 11.4696 -0.376447 1.68868 11.4696 -0.376447 1.68868
66 2 11.446 -0.533684 -1.70732 11.446 -0.533684 -1.70732
67 1 12.3197 -2.09787 0.00512208 12.3197 -2.09787 0.00512208
68 2 14.3712 -2.02291 1.42226 14.3712 -2.02291 1.42226
69 2 14.1758 -2.19558 -1.80951 14.1758 -2.19558 -1.80951
70 1 15.216 -0.476466 -0.464373 15.216 -0.476466 -0.464373
71 2 17.2635 -0.451374 1.08321 17.2635 -0.451374 1.08321
72 2 17.1023 -0.314817 -2.20354 17.1023 -0.314817 -2.20354
73 1 18.0788 -2.07811 -0.645083 18.0788 -2.07811 -0.645083
74 2 19.9462 -1.93903 1.15885 19.9462 -1.93903 1.15885
75 2 20.0971 -2.17864 -2.11975 20.0971 -2.17864 -2.11975
76 1 20.8983 -0.295138 -0.605214 20.8983 -0.295138 -0.605214
77 2 22.5474 -0.257591 1.22163 22.5474 -0.257591 1.22163
78 2 23.0606 -0.386798 -1.89671 23.0606 -0.386798 -1.89671
79 1 23.726 -1.97384 -0.0367938 23.726 -1.97384 -0.0367938
80 2 25.5166 -1.81533 1.72077 25.5166 -1.81533 1.72077
81 2 25.7557 -2.15509 -1.58453 25.7557 -2.15509 -1.58453
82 1 26.6006 -0.274808 -0.0670577 26.6006 -0.274808 -0.0670577
83 2 28.2731 -0.125729 1.8752 28.2731 -0.125729 1.8752
84 2 28.7937 -0.390856 -1.31491 28.7937 -0.390856 -1.31491
85 1 29.4048 -1.92047 0.504635 29.4048 -1.92047 0.504635
86 2 31.4534 -1.74589 2.03352 31.4534 -1.74589 2.03352
87 2 31.297 -2.22443 -1.18566 31.297 -2.22443 -1.18566
88 1 32.3431 -0.39848 0.221451 32.3431 -0.39848 0.221451
89 2 33.9406 -0.207338 2.23117 33.9406 -0.207338 2.23117
90 2 34.6638 -0.3434 -0.997877 34.6638 -0.3434 -0.997877
91 1 35.2084 -2.02195 0.934933 35.2084 -2.02195 0.934933
92 2 37.0032 -2.01031 2.67621 37.0032 -2.01031 2.67621
93 2 37.1893 -2.24114 -0.544603 37.1893 -2.24114 -0.544603
94 1 38.0186 -0.336455 0.965987 38.0186 -0.336455 0.965987
95 2 39.9001 -0.220554 2.71688 39.9001 -0.220554 2.71688
96 2 39.9788 -0.437734 -0.518258 39.9788 -0.437734 -0.518258
97 1 40.7978 -2.00034 1.17917 40.7978 -2.00034 1.17917
98 2 42.7638 -1.94136 2.76098 42.7638 -1.94136 2.76098
99 2 42.5506 -1.91642 -0.550957 42.5506 -1.91642 -0.550957
100 1 43.7216 -0.421492 1.00721 43.7216 -0.421492 1.00721
101 2 45.6569 -0.238959 2.63288 45.6569 -0.238959 2.63288
102 2 45.6143 -0.43141 -0.633321 45.6143 -0.43141 -0.633321
103 1 46.627 -1.9779 1.07512 46.627 -1.9779 1.07512
104 2 48.5923 -1.8018 2.81614 48.5923 -1.8018 2.81614
105 2 48.5986 -2.11242 -0.574726 48.5986 -2.11242 -0.574726
106 1 49.4501 -0.398245 0.8597 49.4501 -0.398245 0.8597
107 2 51.4952 -0.230261 2.31898 51.4952 -0.230261 2.31898
108 2 51.2747 -0.393123 -0.907673 51.2747 -0.393123 -0.907673
109 1 0.838303 1.27674 0.458363 0.838303 1.27674 0.458363
110 2 2.80547 1.16647 2.02925 2.80547 1.16647 2.02925
111 2 2.6592 1.26497 -1.39026 2.6592 1.26497 -1.39026
112 1 3.81308 2.81385 0.384224 3.81308 2.81385 0.384224
113 2 5.8231 2.79472 1.92082 5.8231 2.79472 1.92082
114 2 5.65807 2.99266 -1.36821 5.65807 2.99266 -1.36821
115 1 6.62394 1.28026 0.0947374 6.62394 1.28026 0.0947374
116 2 8.54901 1.11438 1.62303 8.54901 1.11438 1.62303
117 2 8.60192 1.32759 -1.55634 8.60192 1.32759 -1.55634
118 1 9.47336 2.8864 0.166738 9.47336 2.8864 0.166738
119 2 11.5306 2.69625 1.75215 11.5306 2.69625 1.75215
120 2 11.435 3.01296 -1.44547 11.435 3.01296 -1.44547
121 1 12.3614 1.10227 -0.138201 12.3614 1.10227 -0.138201
122 2 14.4381 1.07856 1.37876 14.4381 1.07856 1.37876
123 2 14.2159 1.3412 -1.88132 14.2159 1.3412 -1.88132
124 1 15.16 2.79924 -0.140233 15.16 2.79924 -0.140233
125 2 17.0297 2.62293 1.41002 17.0297 2.62293 1.41002
126 2 16.8801 3.00132 -1.92204 16.8801 3.00132 -1.92204
127 1 17.9914 1.27978 -0.532652 17.9914 1.27978 -0.532652
128 2 19.8939 1.25992 1.20642 19.8939 1.25992 1.20642
129 2 19.7882 1.45801 -2.20273 19.7882 1.45801 -2.20273
130 1 20.773 2.99621 -0.388119 20.773 2.99621 -0.388119
131 2 22.6066 2.73321 1.32856 22.6066 2.73321 1.32856
132 2 22.7419 3.02667 -1.81275 22.7419 3.02667 -1.81275
133 1 23.7537 1.35311 -0.277151 23.7537 1.35311 -0.277151
134 2 25.5151 1.41589 1.46139 25.5151 1.41589 1.46139
135 2 25.829 1.3395 -1.76031 25.829 1.3395 -1.76031
136 1 26.6367 3.0984 -0.0606642 26.6367 3.0984 -0.0606642
137 2 28.3591 2.97397 1.80206 28.3591 2.97397 1.80206
138 2 28.7273 3.15868 -1.54786 28.7273 3.15868 -1.54786
139 1 29.5493 1.41489 0.259493 29.5493 1.41489 0.259493
140 2 31.4697 1.35001 1.98768 31.4697 1.35001 1.98768
141 2 31.4068 1.42545 -1.24702 31.4068 1.42545 -1.24702
142 1 32.4173 2.91345 0.422627 32.4173 2.91345 0.422627
143 2 34.1183 2.99951 2.19071 34.1183 2.99951 2.19071
144 2 34.376 2.87797 -1.13592 34.376 2.87797 -1.13592
145 1 35.2107 1.40241 0.729119 35.2107 1.40241 0.729119
146 2 36.9483 1.35585 2.4628 36.9483 1.35585 2.4628
147 2 37.2334 1.39329 -0.811355 37.2334 1.39329 -0.811355
148 1 38.0996 3.00009 0.926857 38.0996 3.00009 0.926857
149 2 40.0677 3.18762 2.51065 40.0677 3.18762 2.51065
150 2 40.0302 2.9007 -0.795608 40.0302 2.9007 -0.795608
151 1 40.9324 1.33346 0.976013 40.9324 1.33346 0.976013
152 2 42.8142 1.35546 2.64285 42.8142 1.35546 2.64285
153 2 42.718 1.23667 -0.601766 42.718 1.23667 -0.601766
154 1 43.741 2.97137 0.909504 43.741 2.97137 0.909504
155 2 45.5644 2.9567 2.56333 45.5644 2.9567 2.56333
156 2 45.6766 2.95107 -0.718458 45.6766 2.95107 -0.718458
157 1 46.5873 1.27634 0.907478 46.5873 1.27634 0.907478
158 2 48.5073 1.36716 2.50212 48.5073 1.36716 2.50212
159 2 48.4747 1.1367 -0.783827 48.4747 1.1367 -0.783827
160 1 49.4454 2.88437 0.820997 49.4454 2.88437 0.820997
161 2 51.4501 2.67481 2.32781 51.4501 2.67481 2.32781
162 2 51.2555 3.06172 -0.99676 51.2555 3.06172 -0.99676
163 1 1.01395 4.46657 0.71525 1.01395 4.46657 0.71525
164 2 3.07286 4.3246 2.11159 3.07286 4.3246 2.11159
165 2 2.70194 4.58764 -1.01421 2.70194 4.58764 -1.01421
166 1 3.82174 6.07623 0.535228 3.82174 6.07623 0.535228
167 2 5.70553 5.93386 2.14048 5.70553 5.93386 2.14048
168 2 5.65872 6.3437 -1.17459 5.65872 6.3437 -1.17459
169 1 6.72074 4.51627 0.280553 6.72074 4.51627 0.280553
170 2 8.35695 4.18632 2.02463 8.35695 4.18632 2.02463
171 2 8.69617 4.89395 -1.25399 8.69617 4.89395 -1.25399
172 1 9.44511 6.09675 0.730117 9.44511 6.09675 0.730117
173 2 11.3388 5.94938 2.2412 11.3388 5.94938 2.2412
174 2 11.2264 6.38064 -0.944023 11.2264 6.38064 -0.944023
175 1 12.3629 4.45792 0.350099 12.3629 4.45792 0.350099
176 2 14.4378 4.21799 1.81059 14.4378 4.21799 1.81059
177 2 14.0541 4.62647 -1.41224 14.0541 4.62647 -1.41224
178 1 15.0734 6.08151 0.378615 15.0734 6.08151 0.378615
179 2 17.1145 6.02637 1.75911 17.1145 6.02637 1.75911
180 2 16.8111 6.43155 -1.41956 16.8111 6.43155 -1.41956
181 1 17.9277 4.58238 -0.183657 17.9277 4.58238 -0.183657
182 2 19.8398 4.36214 1.44124 19.8398 4.36214 1.44124
183 2 19.776 4.95795 -1.83301 19.776 4.95795 -1.83301
184 1 20.8292 6.23964 -0.0270695 20.8292 6.23964 -0.0270695
185 2 22.601 6.15629 1.75552 22.601 6.15629 1.75552
186 2 22.8281 6.40017 -1.51178 22.8281 6.40017 -1.51178
187 1 23.6332 4.57897 0.0303567 23.6332 4.57897 0.0303567
188 2 25.6554 4.50046 1.72236 25.6554 4.50046 1.72236
189 2 25.5241 4.76058 -1.5687 25.5241 4.76058 -1.5687
190 1 26.5916 6.3677 0.247896 26.5916 6.3677 0.247896
191 2 28.4412 6.24963 2.00378 28.4412 6.24963 2.00378
192 2 28.6274 6.49427 -1.19324 28.6274 6.49427 -1.19324
193 1 29.5196 4.74682 0.327581 29.5196 4.74682 0.327581
194 2 31.4452 4.74071 1.97515 31.4452 4.74071 1.97515
195 2 31.4886 4.57747 -1.26383 31.4886 4.57747 -1.26383
196 1 32.4523 6.36555 0.228896 32.4523 6.36555 0.228896
197 2 34.0781 6.19675 2.13037 34.0781 6.19675 2.13037
198 2 34.5755 6.41028 -1.17565 34.5755 6.41028 -1.17565
199 1 35.2637 4.62125 0.532198 35.2637 4.62125 0.532198
200 2 36.9634 4.70918 2.32567 36.9634 4.70918 2.32567
201 2 37.3191 4.42475 -0.939566 37.3191 4.42475 -0.939566
202 1 38.0918 6.34609 0.54068 38.0918 6.34609 0.54068
203 2 39.9182 6.2153 2.43804 39.9182 6.2153 2.43804
204 2 40.1324 6.39808 -0.884507 40.1324 6.39808 -0.884507
205 1 40.9638 4.70794 0.751663 40.9638 4.70794 0.751663
206 2 42.8278 4.58441 2.5713 42.8278 4.58441 2.5713
207 2 43.0359 4.64433 -0.806595 43.0359 4.64433 -0.806595
208 1 43.8757 6.28772 0.95639 43.8757 6.28772 0.95639
209 2 45.5917 6.05874 2.70945 45.5917 6.05874 2.70945
210 2 45.9013 6.34007 -0.550152 45.9013 6.34007 -0.550152
211 1 46.6165 4.56572 1.02161 46.6165 4.56572 1.02161
212 2 48.6385 4.4565 2.48107 48.6385 4.4565 2.48107
213 2 48.3285 4.5917 -0.753206 48.3285 4.5917 -0.753206
214 1 49.4889 6.14732 0.781741 49.4889 6.14732 0.781741
215 2 51.462 6.09391 2.41922 51.462 6.09391 2.41922
216 2 51.4088 6.13636 -0.967171 51.4088 6.13636 -0.967171
217 1 0.893424 7.86829 0.768802 0.893424 7.86829 0.768802
218 2 2.86565 7.68849 2.36243 2.86565 7.68849 2.36243
219 2 2.77835 7.92157 -0.829693 2.77835 7.92157 -0.829693
220 1 3.71338 9.50451 0.823276 3.71338 9.50451 0.823276
221 2 5.53197 9.20348 2.39168 5.53197 9.20348 2.39168
222 2 5.72718 9.67346 -0.738834 5.72718 9.67346 -0.738834
223 1 6.58807 7.76478 0.658889 6.58807 7.76478 0.658889
224 2 8.39561 7.66189 2.35432 8.39561 7.66189 2.35432
225 2 8.60217 7.91175 -0.750653 8.60217 7.91175 -0.750653
226 1 9.42408 9.42309 0.977425 9.42408 9.42309 0.977425
227 2 11.4236 9.37626 2.51259 11.4236 9.37626 2.51259
228 2 11.3235 9.49809 -0.696545 11.3235 9.49809 -0.696545
229 1 12.3376 7.75774 0.819352 12.3376 7.75774 0.819352
230 2 14.331 7.51098 2.36978 14.331 7.51098 2.36978
231 2 14.1246 8.0326 -0.984057 14.1246 8.0326 -0.984057
232 1 15.1109 9.37828 0.853834 15.1109 9.37828 0.853834
233 2 17.0815 9.18518 2.23962 17.0815 9.18518 2.23962
234 2 16.8616 9.80296 -0.891505 16.8616 9.80296 -0.891505
235 1 17.968 7.89499 0.30906 17.968 7.89499 0.30906
236 2 19.9774 7.78454 1.79797 19.9774 7.78454 1.79797
237 2 19.8221 8.07336 -1.43126 19.8221 8.07336 -1.43126
238 1 20.8284 9.5933 0.342766 20.8284 9.5933 0.342766
239 2 22.7094 9.62706 1.97611 22.7094 9.62706 1.97611
240 2 22.8039 9.53368 -1.27291 22.8039 9.53368 -1.27291
241 1 23.703 7.89872 0.376621 23.703 7.89872 0.376621
242 2 25.6621 7.86191 1.99396 25.6621 7.86191 1.99396
243 2 25.622 8.10534 -1.23258 25.622 8.10534 -1.23258
244 1 26.5813 9.61313 0.529779 26.5813 9.61313 0.529779
245 2 28.3147 9.52996 2.30707 28.3147 9.52996 2.30707
246 2 28.5037 9.71701 -0.970071 28.5037 9.71701 -0.970071
247 1 29.5101 7.98988 0.585063 29.5101 7.98988 0.585063
248 2 31.5136 7.85309 2.12854 31.5136 7.85309 2.12854
249 2 31.4822 8.12574 -1.16956 31.4822 8.12574 -1.16956
250 1 32.3682 9.6457 0.782527 32.3682 9.6457 0.782527
251 2 34.2882 9.66929 2.30338 34.2882 9.66929 2.30338
252 2 34.1978 9.7726 -0.972197 34.1978 9.7726 -0.972197
253 1 35.1981 8.07639 0.687581 35.1981 8.07639 0.687581
254 2 37.1336 7.8933 2.21217 37.1336 7.8933 2.21217
255 2 37.0966 8.10667 -0.965216 37.0966 8.10667 -0.965216
256 1 38.1073 9.7355 0.634409 38.1073 9.7355 0.634409
257 2 41.4092 10.2749 1.51688 41.4092 10.2749 1.51688
258 2 40.1022 9.48142 -0.966629 40.1022 9.48142 -0.966629
259 1 40.9525 7.98499 0.966737 40.9525 7.98499 0.966737
260 2 42.825 7.7579 2.66091 42.825 7.7579 2.66091
261 2 42.874 7.91827 -0.634647 42.874 7.91827 -0.634647
262 1 43.7288 9.50231 1.01405 43.7288 9.50231 1.01405
263 2 45.5917 9.51347 2.7498 45.5917 9.51347 2.7498
264 2 45.7586 9.37577 -0.468176 45.7586 9.37577 -0.468176
265 1 46.6695 7.85619 1.25427 46.6695 7.85619 1.25427
266 2 48.5786 7.56756 2.75073 48.5786 7.56756 2.75073
267 2 48.3465 8.02392 -0.581104 48.3465 8.02392 -0.581104
268 1 49.4292 9.45976 1.23393 49.4292 9.45976 1.23393
269 2 51.6011 9.54877 2.54367 51.6011 9.54877 2.54367
270 2 51.1309 9.49534 -0.687043 51.1309 9.49534 -0.687043
271 1 0.849468 11.1747 0.777591 0.849468 11.1747 0.777591
272 2 2.73538 11.2865 2.45015 2.73538 11.2865 2.45015
273 2 2.77557 11.0705 -0.896382 2.77557 11.0705 -0.896382
274 1 3.69066 12.7905 0.704177 3.69066 12.7905 0.704177
275 2 5.35379 12.6369 2.69678 5.35379 12.6369 2.69678
276 2 5.86838 12.8121 -0.510879 5.86838 12.8121 -0.510879
277 1 6.59104 11.0306 1.16687 6.59104 11.0306 1.16687
278 2 8.59246 10.8503 2.85199 8.59246 10.8503 2.85199
279 2 8.54582 11.2023 -0.487814 8.54582 11.2023 -0.487814
280 1 9.47834 12.7023 1.28931 9.47834 12.7023 1.28931
281 2 11.4522 12.6953 2.67983 11.4522 12.6953 2.67983
282 2 11.1911 12.93 -0.512555 11.1911 12.93 -0.512555
283 1 12.2299 11.1113 0.827122 12.2299 11.1113 0.827122
284 2 14.0891 11.0488 2.51382 14.0891 11.0488 2.51382
285 2 14.0647 11.1663 -0.844307 14.0647 11.1663 -0.844307
286 1 15.0977 12.7719 0.877504 15.0977 12.7719 0.877504
287 2 16.9256 12.5548 2.52332 16.9256 12.5548 2.52332
288 2 16.9234 12.767 -0.716648 16.9234 12.767 -0.716648
289 1 17.9109 11.1486 0.798656 17.9109 11.1486 0.798656
290 2 20.062 11.1802 2.22233 20.062 11.1802 2.22233
291 2 19.6636 11.2466 -1.13795 19.6636 11.2466 -1.13795
292 1 20.7481 12.8332 0.489737 20.7481 12.8332 0.489737
293 2 22.903 13.2977 1.78029 22.903 13.2977 1.78029
294 2 22.4951 12.7149 -1.4671 22.4951 12.7149 -1.4671
295 1 23.6782 11.3059 0.278965 23.6782 11.3059 0.278965
296 2 25.4184 11.2083 2.06017 25.4184 11.2083 2.06017
297 2 25.8147 11.3446 -1.14989 25.8147 11.3446 -1.14989
298 1 26.6004 12.9295 0.794045 26.6004 12.9295 0.794045
299 2 28.5918 13.2174 2.22702 28.5918 13.2174 2.22702
300 2 28.3512 12.7011 -0.974604 28.3512 12.7011 -0.974604
301 1 29.4262 11.2541 0.779155 29.4262 11.2541 0.779155
302 2 31.4269 11.2688 2.34617 31.4269 11.2688 2.34617
303 2 31.3691 11.2378 -0.913144 31.3691 11.2378 -0.913144
304 1 32.2741 12.8977 0.635912 32.2741 12.8977 0.635912
305 2 34.1998 13.0559 2.13091 34.1998 13.0559 2.13091
306 2 34.1354 13.0593 -0.870265 34.1354 13.0593 -0.870265
307 1 35.1956 11.3123 0.639586 35.1956 11.3123 0.639586
308 2 37.4209 12.0062 1.32156 37.4209 12.0062 1.32156
309 2 36.9947 11.0425 -1.13198 36.9947 11.0425 -1.13198
310 1 38.613 25.783 -6.8409 38.613 25.783 -6.8409
311 2 39.4665 23.4746 -7.21689 39.4665 23.4746 -7.21689
312 2 40.8474 26.795 -7.35937 40.8474 26.795 -7.35937
313 1 41.6657 24.5181 -7.59304 41.6657 24.5181 -7.59304
314 2 41.451 24.0011 -5.16018 41.451 24.0011 -5.16018
315 2 43.5493 22.7802 -7.30698 43.5493 22.7802 -7.30698
316 1 44.0139 24.1218 -5.1493 44.0139 24.1218 -5.1493
317 2 46.2009 23.0024 -4.54093 46.2009 23.0024 -4.54093
318 2 45.9221 24.6015 -6.81135 45.9221 24.6015 -6.81135
319 1 46.4772 11.076 1.07475 46.4772 11.076 1.07475
320 2 48.3855 11.0586 2.74262 48.3855 11.0586 2.74262
321 2 48.5242 11.065 -0.425214 48.5242 11.065 -0.425214
322 1 49.382 12.771 1.14941 49.382 12.771 1.14941
323 2 51.4404 12.5414 2.60794 51.4404 12.5414 2.60794
324 2 51.1748 12.9713 -0.584173 51.1748 12.9713 -0.584173
325 1 0.811247 14.5661 1.06237 0.811247 14.5661 1.06237
326 2 2.92626 14.3015 2.42819 2.92626 14.3015 2.42819
327 2 2.64417 14.4401 -0.712238 2.64417 14.4401 -0.712238
328 1 3.69402 16.1038 0.873816 3.69402 16.1038 0.873816
329 2 5.46008 16.1585 2.62058 5.46008 16.1585 2.62058
330 2 5.64215 15.7417 -0.563003 5.64215 15.7417 -0.563003
331 1 6.55455 14.3303 1.35864 6.55455 14.3303 1.35864
332 2 8.28539 13.9902 3.09928 8.28539 13.9902 3.09928
333 2 8.59418 14.5537 -0.146892 8.59418 14.5537 -0.146892
334 1 9.31932 15.9679 1.82583 9.31932 15.9679 1.82583
335 2 11.6651 15.6305 3.12505 11.6651 15.6305 3.12505
336 2 11.0383 16.2732 -0.0798963 11.0383 16.2732 -0.0798963
337 1 12.2827 14.3964 1.10375 12.2827 14.3964 1.10375
338 2 14.2005 14.2006 2.73864 14.2005 14.2006 2.73864
339 2 14.1182 14.5679 -0.606065 14.1182 14.5679 -0.606065
340 1 15.0677 16.0717 1.2387 15.0677 16.0717 1.2387
341 2 16.9416 15.9318 2.8691 16.9416 15.9318 2.8691
342 2 16.9367 16.2992 -0.38451 16.9367 16.2992 -0.38451
343 1 17.8423 14.3672 1.03412 17.8423 14.3672 1.03412
344 2 19.8854 14.3576 2.29018 19.8854 14.3576 2.29018
345 2 19.3695 14.4059 -0.94359 19.3695 14.4059 -0.94359
346 1 20.6702 15.9989 0.441198 20.6702 15.9989 0.441198
347 2 22.993 16.2948 1.3768 22.993 16.2948 1.3768
348 2 21.9806 15.9701 -1.68332 21.9806 15.9701 -1.68332
349 1 23.6453 14.5882 -0.290913 23.6453 14.5882 -0.290913
350 2 25.3203 14.8496 1.78856 25.3203 14.8496 1.78856
351 2 25.9366 14.1533 -1.33976 25.9366 14.1533 -1.33976
352 1 26.5007 16.208 0.0903319 26.5007 16.208 0.0903319
353 2 28.0965 15.9789 1.95501 28.0965 15.9789 1.95501
354 2 28.5076 16.1053 -1.34161 28.5076 16.1053 -1.34161
355 1 29.3966 14.6026 0.335051 29.3966 14.6026 0.335051
356 2 31.7563 15.3114 1.04913 31.7563 15.3114 1.04913
357 2 31.1006 14.1133 -1.35377 31.1006 14.1133 -1.35377
358 1 33.2022 28.6543 -5.27047 33.2022 28.6543 -5.27047
359 2 36.5702 27.3164 -3.71842 36.5702 27.3164 -3.71842
360 2 35.2833 29.6546 -5.93035 35.2833 29.6546 -5.93035
361 1 35.8437 27.3583 -6.01587 35.8437 27.3583 -6.01587
362 2 39.3031 25.5914 -4.44911 39.3031 25.5914 -4.44911
363 2 37.9934 28.1889 -6.71765 37.9934 28.1889 -6.71765
364 1 38.8422 28.1585 -4.35135 38.8422 28.1585 -4.35135
365 2 40.6008 27.2074 -2.78737 40.6008 27.2074 -2.78737
366 2 40.8791 28.9547 -5.62666 40.8791 28.9547 -5.62666
367 1 41.6203 26.5159 -5.00688 41.6203 26.5159 -5.00688
368 2 43.1746 25.5801 -3.27213 43.1746 25.5801 -3.27213
369 2 43.5401 26.1226 -6.49967 43.5401 26.1226 -6.49967
370 1 44.5727 27.307 -4.25099 44.5727 27.307 -4.25099
371 2 46.2709 26.3949 -2.72877 46.2709 26.3949 -2.72877
372 2 46.6693 27.7099 -5.72749 46.6693 27.7099 -5.72749
373 1 47.1596 25.3825 -4.83244 47.1596 25.3825 -4.83244
374 2 48.8495 24.5512 -3.14132 48.8495 24.5512 -3.14132
375 2 49.8123 28.6444 -5.16698 49.8123 28.6444 -5.16698
376 1 50.3541 26.257 -4.24686 50.3541 26.257 -4.24686
377 2 48.8782 26.1117 -6.41506 48.8782 26.1117 -6.41506
378 2 52.1885 26.9861 -5.70385 52.1885 26.9861 -5.70385
379 1 51.0055 29.3472 -2.97217 -0.405256 29.3472 -2.97217
380 2 1.15413 29.8654 -1.098 1.15413 29.8654 -1.098
381 2 1.63335 29.541 -4.62379 1.63335 29.541 -4.62379
382 1 3.03327 30.6108 -2.72688 3.03327 30.6108 -2.72688
383 2 4.85927 30.2009 -0.931338 4.85927 30.2009 -0.931338
384 2 3.69885 28.2679 -2.72546 3.69885 28.2679 -2.72546
385 1 6.45239 17.5687 0.850387 6.45239 17.5687 0.850387
386 2 7.82669 17.7572 2.84821 7.82669 17.7572 2.84821
387 2 8.73644 17.5066 -0.202051 8.73644 17.5066 -0.202051
388 1 9.27191 19.2382 1.47563 9.27191 19.2382 1.47563
389 2 10.4937 17.8464 3.13394 10.4937 17.8464 3.13394
390 2 11.3143 19.3617 0.0143069 11.3143 19.3617 0.0143069
391 1 12.3251 17.616 1.45083 12.3251 17.616 1.45083
392 2 15.4254 18.3266 1.95975 15.4254 18.3266 1.95975
393 2 13.9173 17.421 -0.404314 13.9173 17.421 -0.404314
394 1 15.275 30.606 -2.79415 15.275 30.606 -2.79415
395 2 17.3835 30.4795 -1.37239 17.3835 30.4795 -1.37239
396 2 16.4564 32.0156 -4.44343 16.4564 32.0156 -4.44343
397 1 17.8183 17.7682 1.30751 17.8183 17.7682 1.30751
398 2 19.7277 17.1455 2.62684 19.7277 17.1455 2.62684
399 2 19.5007 17.8873 -0.617781 19.5007 17.8873 -0.617781
400 1 21.5104 30.7543 -3.68496 21.5104 30.7543 -3.68496
401 2 23.2716 30.3395 -2.0052 23.2716 30.3395 -2.0052
402 2 23.35 31.8171 -5.00091 23.35 31.8171 -5.00091
403 1 23.3552 17.7671 -0.472225 23.3552 17.7671 -0.472225
404 2 25.4573 18.3418 0.887458 25.4573 18.3418 0.887458
405 2 24.7844 16.4361 -1.73289 24.7844 16.4361 -1.73289
406 1 27.312 30.9908 -3.67148 27.312 30.9908 -3.67148
407 2 31.1173 30.0397 -2.00778 31.1173 30.0397 -2.00778
408 2 29.4646 32.1277 -4.3881 29.4646 32.1277 -4.3881
409 1 30.3887 29.8708 -4.33701 30.3887 29.8708 -4.33701
410 2 33.821 28.653 -2.86448 33.821 28.653 -2.86448
411 2 32.3782 30.9763 -5.20184 32.3782 30.9763 -5.20184
412 1 33.2159 31.1898 -2.81623 33.2159 31.1898 -2.81623
413 2 35.3018 30.8667 -1.2726 35.3018 30.8667 -1.2726
414 2 35.0412 32.0053 -4.32774 35.0412 32.0053 -4.32774
415 1 36.0459 29.772 -3.5734 36.0459 29.772 -3.5734
416 2 38.1094 29.1314 -2.00801 38.1094 29.1314 -2.00801
417 2 38.0039 30.5019 -5.04737 38.0039 30.5019 -5.04737
418 1 39.2396 31.1049 -2.85803 39.2396 31.1049 -2.85803
419 2 40.9538 30.2554 -1.27518 40.9538 30.2554 -1.27518
420 2 41.3916 31.4728 -4.27299 41.3916 31.4728 -4.27299
421 1 41.9684 29.2532 -3.32945 41.9684 29.2532 -3.32945
422 2 43.9512 28.323 -2.03847 43.9512 28.323 -2.03847
423 2 43.9162 29.6293 -5.08691 43.9162 29.6293 -5.08691
424 1 45.1282 30.1731 -2.97228 45.1282 30.1731 -2.97228
425 2 47.2335 29.3772 -1.47574 47.2335 29.3772 -1.47574
426 2 46.9591 30.4263 -4.59044 46.9591 30.4263 -4.59044
427 1 47.8483 28.3225 -3.5978 47.8483 28.3225 -3.5978
428 2 49.7012 27.5539 -2.06567 49.7012 27.5539 -2.06567
429 2 1.00906 27.291 -3.07274 52.4198 27.291 -3.07274
430 1 48.3755 31.3811 -2.52607 48.3755 31.3811 -2.52607
431 2 50.0016 30.5308 -0.832744 50.0016 30.5308 -0.832744
432 2 50.5206 31.4946 -4.01166 50.5206 31.4946 -4.01166
433 1 51.7266 32.2869 -1.81137 0.315871 32.2869 -1.81137
434 2 2.66776 32.093 -0.51226 2.66776 32.093 -0.51226
435 2 1.87455 32.6455 -3.77872 1.87455 32.6455 -3.77872
436 1 3.39769 33.8893 -2.12613 3.39769 33.8893 -2.12613
437 2 5.38511 33.4587 -0.435704 5.38511 33.4587 -0.435704
438 2 5.54432 34.2037 -3.60135 5.54432 34.2037 -3.60135
439 1 6.2655 32.1493 -2.25895 6.2655 32.1493 -2.25895
440 2 8.1791 32.0542 -0.537629 8.1791 32.0542 -0.537629
441 2 10.2296 31.3453 -2.39071 10.2296 31.3453 -2.39071
442 1 9.49841 33.6888 -1.8929 9.49841 33.6888 -1.8929
443 2 11.5136 33.9201 -0.408981 11.5136 33.9201 -0.408981
444 2 11.394 33.738 -3.71841 11.394 33.738 -3.71841
445 1 12.5009 32.1753 -2.0408 12.5009 32.1753 -2.0408
446 2 14.8014 32.265 -1.10192 14.8014 32.265 -1.10192
447 2 13.7399 32.1045 -4.10719 13.7399 32.1045 -4.10719
448 1 15.3915 33.9539 -2.93377 15.3915 33.9539 -2.93377
449 2 17.2539 33.4673 -1.13812 17.2539 33.4673 -1.13812
450 2 17.641 34.4775 -4.20876 17.641 34.4775 -4.20876
451 1 18.4127 32.2506 -3.02904 18.4127 32.2506 -3.02904
452 2 20.4929 31.6383 -1.63021 20.4929 31.6383 -1.63021
453 2 20.4625 32.9463 -4.48292 20.4625 32.9463 -4.48292
454 1 21.387 33.8323 -2.39407 21.387 33.8323 -2.39407
455 2 23.3222 33.3551 -0.750086 23.3222 33.3551 -0.750086
456 2 23.2974 34.4358 -3.92852 23.2974 34.4358 -3.92852
457 1 24.3836 32.4276 -2.83262 24.3836 32.4276 -2.83262
458 2 26.4334 31.9192 -1.44755 26.4334 31.9192 -1.44755
459 2 26.3194 33.0228 -4.42996 26.3194 33.0228 -4.42996
460 1 27.2494 34.0816 -2.24975 27.2494 34.0816 -2.24975
461 2 28.7737 33.5061 -0.279057 28.7737 33.5061 -0.279057
462 2 29.4844 34.5363 -3.26798 29.4844 34.5363 -3.26798
463 1 30.2241 32.3791 -2.003 30.2241 32.3791 -2.003
464 2 32.4341 32.0208 -0.590743 32.4341 32.0208 -0.590743
465 2 32.1623 33.2479 -3.51519 32.1623 33.2479 -3.51519
466 1 33.1513 34.2496 -1.51422 33.1513 34.2496 -1.51422
467 2 35.1225 33.7041 -0.131771 35.1225 33.7041 -0.131771
468 2 35.024 34.9548 -3.16547 35.024 34.9548 -3.16547
469 1 36.2355 32.8667 -2.30522 36.2355 32.8667 -2.30522
470 2 38.2694 32.1419 -0.75024 38.2694 32.1419 -0.75024
471 2 38.455 33.2961 -3.74615 38.455 33.2961 -3.74615
472 1 39.5439 34.234 -1.61797 39.5439 34.234 -1.61797
473 2 41.4546 32.9981 0.0296883 41.4546 32.9981 0.0296883
474 2 41.8753 34.5327 -2.92567 41.8753 34.5327 -2.92567
475 1 42.4599 32.1214 -2.1625 42.4599 32.1214 -2.1625
476 2 44.2501 31.0622 -0.779465 44.2501 31.0622 -0.779465
477 2 44.354 32.3813 -3.74616 44.354 32.3813 -3.74616
478 1 41.6052 37.1038 -2.32689 41.6052 37.1038 -2.32689
479 2 45.0892 33.8313 0.632921 45.0892 33.8313 0.632921
480 2 44.7996 35.2583 -2.28983 44.7996 35.2583 -2.28983
481 1 45.6288 32.9899 -1.6683 45.6288 32.9899 -1.6683
482 2 47.5975 32.2117 -0.252465 47.5975 32.2117 -0.252465
483 2 47.5797 33.5919 -3.24846 47.5797 33.5919 -3.24846
484 1 48.899 34.2775 -1.27622 48.899 34.2775 -1.27622
485 2 51.0139 33.678 0.206171 51.0139 33.678 0.206171
486 2 50.5838 34.4382 -3.03422 50.5838 34.4382 -3.03422
487 1 51.9412 35.5977 -1.21991 0.530437 35.5977 -1.21991
488 2 2.61631 35.0197 0.118178 2.61631 35.0197 0.118178
489 2 2.25448 35.9413 -3.07028 2.25448 35.9413 -3.07028
490 1 3.5669 37.0596 -1.09466 3.5669 37.0596 -1.09466
491 2 5.7153 36.7853 0.334422 5.7153 36.7853 0.334422
492 2 5.41221 37.1868 -2.8639 5.41221 37.1868 -2.8639
493 1 6.48685 35.3845 -1.57618 6.48685 35.3845 -1.57618
494 2 8.57804 35.2581 -0.0150716 8.57804 35.2581 -0.0150716
495 2 8.47832 35.518 -3.38377 8.47832 35.518 -3.38377
496 1 9.45377 37.0396 -1.5513 9.45377 37.0396 -1.5513
497 2 11.6153 36.7447 -0.33669 11.6153 36.7447 -0.33669
498 2 11.1177 37.3003 -3.40392 11.1177 37.3003 -3.40392
499 1 12.4457 35.4699 -2.32273 12.4457 35.4699 -2.32273
500 2 14.5304 35.2035 -0.812241 14.5304 35.2035 -0.812241
501 2 14.4362 35.9815 -3.97913 14.4362 35.9815 -3.97913
502 1 15.4491 37.1541 -1.96357 15.4491 37.1541 -1.96357
503 2 17.3323 36.9099 -0.278859 17.3323 36.9099 -0.278859
504 2 17.5716 37.4404 -3.42622 17.5716 37.4404 -3.42622
505 1 18.404 35.5777 -2.12338 18.404 35.5777 -2.12338
506 2 20.3294 34.9892 -0.374961 20.3294 34.9892 -0.374961
507 2 20.5114 35.9405 -3.51883 20.5114 35.9405 -3.51883
508 1 21.3477 36.9984 -1.48843 21.3477 36.9984 -1.48843
509 2 23.1657 36.5468 0.170012 23.1657 36.5468 0.170012
510 2 23.2686 37.5809 -2.95933 23.2686 37.5809 -2.95933
511 1 24.2412 35.4211 -1.82333 24.2412 35.4211 -1.82333
512 2 26.0918 34.8782 -0.210788 26.0918 34.8782 -0.210788
513 2 26.2653 36.1602 -3.21634 26.2653 36.1602 -3.21634
514 1 27.0509 37.0926 -0.979347 27.0509 37.0926 -0.979347
515 2 28.6169 36.5851 0.943582 28.6169 36.5851 0.943582
516 2 29.103 37.6733 -2.09906 29.103 37.6733 -2.09906
517 1 30.0769 35.4878 -1.06786 30.0769 35.4878 -1.06786
518 2 31.8203 34.7322 0.543674 31.8203 34.7322 0.543674
519 2 32.042 36.4132 -2.29403 32.042 36.4132 -2.29403
520 1 32.6994 37.1011 0.117088 32.6994 37.1011 0.117088
521 2 34.7758 36.4436 1.34668 34.7758 36.4436 1.34668
522 2 34.3892 38.0053 -1.44344 34.3892 38.0053 -1.44344
523 1 35.7514 35.8846 -0.967149 35.7514 35.8846 -0.967149
524 2 38.0061 35.2798 0.266897 38.0061 35.2798 0.266897
525 2 36.7245 37.3663 -2.68793 36.7245 37.3663 -2.68793
526 1 38.5257 37.4979 -0.883376 38.5257 37.4979 -0.883376
527 2 40.9978 36.3879 -0.11867 40.9978 36.3879 -0.11867
528 2 39.2851 36.3353 -3.08395 39.2851 36.3353 -3.08395
529 1 43.0023 34.8321 -0.554286 43.0023 34.8321 -0.554286
530 2 39.0916 38.0671 1.5331 39.0916 38.0671 1.5331
531 2 39.9124 38.9808 -2.11261 39.9124 38.9808 -2.11261
532 1 43.6623 37.3486 0.18318 43.6623 37.3486 0.18318
533 2 45.6658 36.9394 1.65366 45.6658 36.9394 1.65366
534 2 45.3006 38.0251 -1.47034 45.3006 38.0251 -1.47034
535 1 46.3204 35.8853 -0.428235 46.3204 35.8853 -0.428235