ITEM: TIMESTEP
384000
ITEM: NUMBER OF ATOMS
810
ITEM: BOX BOUNDS pp pp pp
8.0341777045796159e-01 5.2214187229542503e+01
-1.4274783314222639e-01 5.1158962833141096e+01
-1.0000000000000000e+01 1.0000000000000000e+01
ITEM: ATOMS id type x y z xu yu zu
1 1 1.04268 0.0731652 0.0817836 1.04268 0.0731652 0.0817836
2 2 2.95398 51.3603 1.79789 2.95398 0.0585593 1.79789
3 2 3.05184 0.058814 -1.45101 3.05184 0.058814 -1.45101
4 1 3.97771 1.77924 0.209672 3.97771 1.77924 0.209672
5 2 5.82398 1.74027 1.91673 5.82398 1.74027 1.91673
6 2 6.00378 1.87721 -1.32412 6.00378 1.87721 -1.32412
7 1 6.84602 0.0576427 0.150536 6.84602 0.0576427 0.150536
8 2 8.73354 -0.0732421 1.68914 8.73354 -0.0732421 1.68914
9 2 8.61646 0.271113 -1.53402 8.61646 0.271113 -1.53402
10 1 9.66516 1.71418 0.276633 9.66516 1.71418 0.276633
11 2 11.7478 1.71429 1.68125 11.7478 1.71429 1.68125
12 2 11.4627 1.82349 -1.5857 11.4627 1.82349 -1.5857
13 1 12.5226 0.0359674 -0.139642 12.5226 0.0359674 -0.139642
14 2 14.4453 -0.0345215 1.37828 14.4453 -0.0345215 1.37828
15 2 14.3813 0.264909 -1.87888 14.3813 0.264909 -1.87888
16 1 15.3385 1.72905 -0.0889424 15.3385 1.72905 -0.0889424
17 2 17.2525 1.5786 1.44089 17.2525 1.5786 1.44089
18 2 17.1211 1.87877 -1.81432 17.1211 1.87877 -1.81432
19 1 18.2007 0.0314649 -0.296945 18.2007 0.0314649 -0.296945
20 2 19.962 0.164223 1.3614 19.962 0.164223 1.3614
21 2 20.2184 0.0907752 -1.9456 20.2184 0.0907752 -1.9456
22 1 20.9906 1.7843 -0.165692 20.9906 1.7843 -0.165692
23 2 22.5845 1.63956 1.62035 22.5845 1.63956 1.62035
24 2 23.0844 2.02401 -1.62178 23.0844 2.02401 -1.62178
25 1 23.8481 0.213054 -0.0571845 23.8481 0.213054 -0.0571845
26 2 25.8469 -0.064022 1.51925 25.8469 -0.064022 1.51925
27 2 25.7626 0.316288 -1.64997 25.7626 0.316288 -1.64997
28 1 26.7187 1.80311 0.102123 26.7187 1.80311 0.102123
29 2 28.6579 1.68728 1.67245 28.6579 1.68728 1.67245
30 2 28.5001 1.94727 -1.63144 28.5001 1.94727 -1.63144
31 1 29.5298 0.134192 -0.187508 29.5298 0.134192 -0.187508
32 2 31.4693 0.110533 1.54456 31.4693 0.110533 1.54456
33 2 31.5142 0.137953 -1.69779 31.5142 0.137953 -1.69779
34 1 32.3925 1.85642 -0.0999744 32.3925 1.85642 -0.0999744
35 2 34.1979 1.78704 1.64719 34.1979 1.78704 1.64719
36 2 34.3549 1.91143 -1.57994 34.3549 1.91143 -1.57994
37 1 35.1694 0.141279 0.0240676 35.1694 0.141279 0.0240676
38 2 37.0533 0.323741 1.69004 37.0533 0.323741 1.69004
39 2 37.1509 0.125452 -1.54347 37.1509 0.125452 -1.54347
40 1 38.0703 1.89234 0.119152 38.0703 1.89234 0.119152
41 2 39.8615 1.70781 1.82376 39.8615 1.70781 1.82376
42 2 40.0704 2.08506 -1.40992 40.0704 2.08506 -1.40992
43 1 40.9056 0.0953545 0.0800918 40.9056 0.0953545 0.0800918
44 2 42.8116 0.021021 1.72907 42.8116 0.021021 1.72907
45 2 42.8123 0.171056 -1.46301 42.8123 0.171056 -1.46301
46 1 43.7708 1.7676 0.220119 43.7708 1.7676 0.220119
47 2 45.7404 1.81037 1.89572 45.7404 1.81037 1.89572
48 2 45.6979 1.74175 -1.42979 45.6979 1.74175 -1.42979
49 1 46.6165 0.116566 0.189196 46.6165 0.116566 0.189196
50 2 48.662 -0.00736402 1.80603 48.662 -0.00736402 1.80603
51 2 48.6618 0.233781 -1.46439 48.6618 0.233781 -1.46439
52 1 49.5356 1.73375 0.269867 49.5356 1.73375 0.269867
53 2 51.6413 1.75444 1.73863 51.6413 1.75444 1.73863
54 2 51.3075 1.71622 -1.44395 51.3075 1.71622 -1.44395
55 1 1.00625 3.42941 0.107036 1.00625 3.42941 0.107036
56 2 2.97141 3.41196 1.8508 2.97141 3.41196 1.8508
57 2 3.06847 3.48605 -1.26805 3.06847 3.48605 -1.26805
58 1 3.84087 5.19026 0.403548 3.84087 5.19026 0.403548
59 2 5.83449 5.38202 1.93277 5.83449 5.38202 1.93277
60 2 5.63435 5.23987 -1.30552 5.63435 5.23987 -1.30552
61 1 6.84565 3.55643 0.399286 6.84565 3.55643 0.399286
62 2 8.7235 3.53432 1.97461 8.7235 3.53432 1.97461
63 2 8.55625 3.31826 -1.38726 8.55625 3.31826 -1.38726
64 1 9.68099 5.21885 0.157725 9.68099 5.21885 0.157725
65 2 11.678 5.1388 1.7332 11.678 5.1388 1.7332
66 2 11.4681 5.11776 -1.51487 11.4681 5.11776 -1.51487
67 1 12.5134 3.50655 0.0860496 12.5134 3.50655 0.0860496
68 2 14.5671 3.40582 1.60267 14.5671 3.40582 1.60267
69 2 14.3092 3.55703 -1.57862 14.3092 3.55703 -1.57862
70 1 15.2973 5.16051 0.00951311 15.2973 5.16051 0.00951311
71 2 17.2845 5.0562 1.54557 17.2845 5.0562 1.54557
72 2 17.0958 5.17644 -1.71814 17.0958 5.17644 -1.71814
73 1 18.1187 3.44795 -0.177038 18.1187 3.44795 -0.177038
74 2 20.0253 3.48906 1.45424 20.0253 3.48906 1.45424
75 2 20.0113 3.46854 -1.71279 20.0113 3.46854 -1.71279
76 1 21.0421 5.19531 -0.136631 21.0421 5.19531 -0.136631
77 2 22.7455 5.41092 1.67571 22.7455 5.41092 1.67571
78 2 23.0141 5.15422 -1.61564 23.0141 5.15422 -1.61564
79 1 23.8702 3.56099 0.272234 23.8702 3.56099 0.272234
80 2 25.7766 3.59795 1.82117 25.7766 3.59795 1.82117
81 2 25.7502 3.59202 -1.51529 25.7502 3.59202 -1.51529
82 1 26.7083 5.27072 0.106177 26.7083 5.27072 0.106177
83 2 28.6331 5.17007 1.80595 28.6331 5.17007 1.80595
84 2 28.6405 5.29506 -1.36943 28.6405 5.29506 -1.36943
85 1 29.5523 3.53443 0.10884 29.5523 3.53443 0.10884
86 2 31.4745 3.57683 1.67432 31.4745 3.57683 1.67432
87 2 31.3741 3.59269 -1.56044 31.3741 3.59269 -1.56044
88 1 32.4438 5.26662 0.100847 32.4438 5.26662 0.100847
89 2 34.3606 5.23871 1.77227 34.3606 5.23871 1.77227
90 2 34.4491 5.19972 -1.47863 34.4491 5.19972 -1.47863
91 1 35.2872 3.56799 0.183251 35.2872 3.56799 0.183251
92 2 37.1199 3.49129 1.85428 37.1199 3.49129 1.85428
93 2 37.1707 3.69871 -1.49082 37.1707 3.69871 -1.49082
94 1 38.1043 5.31174 0.323679 38.1043 5.31174 0.323679
95 2 39.8289 5.1114 2.08457 39.8289 5.1114 2.08457
96 2 40.1818 5.46002 -1.08784 40.1818 5.46002 -1.08784
97 1 40.9965 3.54229 0.408761 40.9965 3.54229 0.408761
98 2 43.0015 3.44932 1.97331 43.0015 3.44932 1.97331
99 2 42.7754 3.5846 -1.30959 42.7754 3.5846 -1.30959
100 1 43.7943 5.26732 0.386574 43.7943 5.26732 0.386574
101 2 45.844 5.16078 1.91543 45.844 5.16078 1.91543
102 2 45.6453 5.24054 -1.33059 45.6453 5.24054 -1.33059
103 1 46.5761 3.44892 0.234973 46.5761 3.44892 0.234973
104 2 48.3922 3.3775 1.89462 48.3922 3.3775 1.89462
105 2 48.613 3.47474 -1.36031 48.613 3.47474 -1.36031
106 1 49.5053 5.17255 0.412574 49.5053 5.17255 0.412574
107 2 51.5368 5.09088 1.86654 51.5368 5.09088 1.86654
108 2 51.3694 5.31404 -1.41916 51.3694 5.31404 -1.41916
109 1 1.03805 6.86139 0.231482 1.03805 6.86139 0.231482
110 2 2.89654 7.00089 1.92115 2.89654 7.00089 1.92115
111 2 2.89313 6.7366 -1.37037 2.89313 6.7366 -1.37037
112 1 3.82608 8.54611 0.0583024 3.82608 8.54611 0.0583024
113 2 5.76462 8.77811 1.65883 5.76462 8.77811 1.65883
114 2 5.83166 8.43969 -1.63976 5.83166 8.43969 -1.63976
115 1 6.73294 6.93721 0.196996 6.73294 6.93721 0.196996
116 2 8.71666 6.89858 1.70191 8.71666 6.89858 1.70191
117 2 8.54792 6.79603 -1.54843 8.54792 6.79603 -1.54843
118 1 9.48289 8.57808 0.0370301 9.48289 8.57808 0.0370301
119 2 11.4185 8.53536 1.61075 11.4185 8.53536 1.61075
120 2 11.5314 8.58804 -1.6265 11.5314 8.58804 -1.6265
121 1 12.5266 6.8744 -0.0214424 12.5266 6.8744 -0.0214424
122 2 14.4459 6.88705 1.67549 14.4459 6.88705 1.67549
123 2 14.4558 6.90043 -1.65797 14.4558 6.90043 -1.65797
124 1 15.3347 8.63232 0.00825678 15.3347 8.63232 0.00825678
125 2 17.1725 8.42651 1.74942 17.1725 8.42651 1.74942
126 2 17.3 8.62425 -1.55518 17.3 8.62425 -1.55518
127 1 18.0978 6.84368 -0.00255962 18.0978 6.84368 -0.00255962
128 2 20.0529 6.7919 1.61857 20.0529 6.7919 1.61857
129 2 20.1401 6.87982 -1.61342 20.1401 6.87982 -1.61342
130 1 21.02 8.57421 0.0714883 21.02 8.57421 0.0714883
131 2 23.0181 8.69058 1.51013 23.0181 8.69058 1.51013
132 2 22.8092 8.47066 -1.75281 22.8092 8.47066 -1.75281
133 1 23.8423 6.96797 -0.0364626 23.8423 6.96797 -0.0364626
134 2 25.6277 6.94686 1.68635 25.6277 6.94686 1.68635
135 2 25.8454 6.90695 -1.60074 25.8454 6.90695 -1.60074
136 1 26.6394 8.65552 0.0410783 26.6394 8.65552 0.0410783
137 2 28.5534 8.86347 1.67098 28.5534 8.86347 1.67098
138 2 28.695 8.40352 -1.61145 28.695 8.40352 -1.61145
139 1 29.6342 7.03665 0.245268 29.6342 7.03665 0.245268
140 2 31.6869 6.99753 1.79922 31.6869 6.99753 1.79922
141 2 31.3868 7.01261 -1.48875 31.3868 7.01261 -1.48875
142 1 32.4069 8.71056 0.153078 32.4069 8.71056 0.153078
143 2 34.3721 8.68126 1.80971 34.3721 8.68126 1.80971
144 2 34.3941 8.7197 -1.3986 34.3941 8.7197 -1.3986
145 1 35.2982 6.97311 0.107471 35.2982 6.97311 0.107471
146 2 37.0883 7.13016 1.8456 37.0883 7.13016 1.8456
147 2 37.2383 6.98958 -1.41753 37.2383 6.98958 -1.41753
148 1 38.1081 8.71037 0.18811 38.1081 8.71037 0.18811
149 2 39.7256 8.6968 2.08051 39.7256 8.6968 2.08051
150 2 40.172 8.62811 -1.11427 40.172 8.62811 -1.11427
151 1 40.9242 6.94511 0.784669 40.9242 6.94511 0.784669
152 2 42.9826 6.89402 2.17607 42.9826 6.89402 2.17607
153 2 42.6813 7.00964 -0.981143 42.6813 7.00964 -0.981143
154 1 43.7755 8.69373 0.532734 43.7755 8.69373 0.532734
155 2 45.8408 8.53526 2.04608 45.8408 8.53526 2.04608
156 2 45.6855 8.6081 -1.25518 45.6855 8.6081 -1.25518
157 1 46.6777 6.88875 0.314036 46.6777 6.88875 0.314036
158 2 48.6519 6.93181 1.91736 48.6519 6.93181 1.91736
159 2 48.4695 6.7747 -1.45718 48.4695 6.7747 -1.45718
160 1 49.5084 8.58316 0.0714007 49.5084 8.58316 0.0714007
161 2 51.3123 8.60776 1.87206 51.3123 8.60776 1.87206
162 2 51.5172 8.76071 -1.32304 51.5172 8.76071 -1.32304
163 1 1.06025 10.286 0.398103 1.06025 10.286 0.398103
164 2 3.15671 10.4274 1.73273 3.15671 10.4274 1.73273
165 2 2.71214 10.2966 -1.47525 2.71214 10.2966 -1.47525
166 1 3.80072 12.1035 -0.0526056 3.80072 12.1035 -0.0526056
167 2 5.83062 12.1986 1.42197 5.83062 12.1986 1.42197
168 2 5.63949 11.9341 -1.85234 5.63949 11.9341 -1.85234
169 1 6.64997 10.3507 -0.0315583 6.64997 10.3507 -0.0315583
170 2 8.56064 10.4586 1.49011 8.56064 10.4586 1.49011
171 2 8.38451 9.98942 -1.75882 8.38451 9.98942 -1.75882
172 1 9.41771 11.8564 -0.415416 9.41771 11.8564 -0.415416
173 2 11.1805 12.1088 1.39462 11.1805 12.1088 1.39462
174 2 11.519 11.851 -1.79332 11.519 11.851 -1.79332
175 1 12.3468 10.2944 0.0258946 12.3468 10.2944 0.0258946
176 2 14.3868 10.2431 1.65111 14.3868 10.2431 1.65111
177 2 14.273 10.4078 -1.58539 14.273 10.4078 -1.58539
178 1 15.1979 11.9999 0.0446593 15.1979 11.9999 0.0446593
179 2 17.0226 12.1448 1.73152 17.0226 12.1448 1.73152
180 2 17.3256 12.0503 -1.46792 17.3256 12.0503 -1.46792
181 1 18.0266 10.3588 0.208647 18.0266 10.3588 0.208647
182 2 20.0374 10.2828 1.75764 20.0374 10.2828 1.75764
183 2 19.9152 10.3239 -1.6132 19.9152 10.3239 -1.6132
184 1 20.9438 12.044 0.00303711 20.9438 12.044 0.00303711
185 2 22.855 11.9035 1.48939 22.855 11.9035 1.48939
186 2 22.7705 12.1208 -1.80954 22.7705 12.1208 -1.80954
187 1 23.6998 10.298 -0.305512 23.6998 10.298 -0.305512
188 2 25.4784 10.3138 1.5175 25.4784 10.3138 1.5175
189 2 25.8199 10.3302 -1.72966 25.8199 10.3302 -1.72966
190 1 26.4564 12.1124 -0.162061 26.4564 12.1124 -0.162061
191 2 28.479 12.1046 1.44335 28.479 12.1046 1.44335
192 2 28.3982 12.0497 -1.74305 28.3982 12.0497 -1.74305
193 1 29.5361 10.3668 -0.156739 29.5361 10.3668 -0.156739
194 2 31.33 10.4077 1.6658 31.33 10.4077 1.6658
195 2 31.5536 10.3408 -1.57067 31.5536 10.3408 -1.57067
196 1 32.4136 12.1802 0.0640069 32.4136 12.1802 0.0640069
197 2 34.1381 12.1377 1.88485 34.1381 12.1377 1.88485
198 2 34.3881 12.2806 -1.43856 34.3881 12.2806 -1.43856
199 1 35.3287 10.4182 0.23341 35.3287 10.4182 0.23341
200 2 37.209 10.3598 1.84986 37.209 10.3598 1.84986
201 2 37.2511 10.4589 -1.35785 37.2511 10.4589 -1.35785
202 1 38.0587 12.1497 0.378679 38.0587 12.1497 0.378679
203 2 39.9769 12.1797 2.14871 39.9769 12.1797 2.14871
204 2 40.0586 12.0999 -1.09725 40.0586 12.0999 -1.09725
205 1 40.9056 10.4401 0.522937 40.9056 10.4401 0.522937
206 2 42.9919 10.4078 2.18476 42.9919 10.4078 2.18476
207 2 42.8612 10.3125 -1.15722 42.8612 10.3125 -1.15722
208 1 43.9264 11.9816 0.550096 43.9264 11.9816 0.550096
209 2 45.9267 12.0274 2.04474 45.9267 12.0274 2.04474
210 2 45.7565 11.907 -1.26145 45.7565 11.907 -1.26145
211 1 46.7301 10.3333 0.373448 46.7301 10.3333 0.373448
212 2 48.5708 10.163 1.93819 48.5708 10.163 1.93819
213 2 48.5277 10.4566 -1.38857 48.5277 10.4566 -1.38857
214 1 49.4592 12.0152 0.36132 49.4592 12.0152 0.36132
215 2 51.5252 12.0651 1.9202 51.5252 12.0651 1.9202
216 2 51.3679 11.9109 -1.2723 51.3679 11.9109 -1.2723
217 1 1.00665 13.736 0.196384 1.00665 13.736 0.196384
218 2 3.18049 13.9396 1.5666 3.18049 13.9396 1.5666
219 2 2.6572 13.7028 -1.66611 2.6572 13.7028 -1.66611
220 1 3.85647 15.4859 -0.388149 3.85647 15.4859 -0.388149
221 2 5.86083 15.4953 1.13201 5.86083 15.4953 1.13201
222 2 5.7944 15.3476 -2.09847 5.7944 15.3476 -2.09847
223 1 6.73626 13.6823 -0.473616 6.73626 13.6823 -0.473616
224 2 8.70465 13.7869 1.0846 8.70465 13.7869 1.0846
225 2 8.57915 13.5406 -2.12878 8.57915 13.5406 -2.12878
226 1 9.5959 15.3975 -0.561224 9.5959 15.3975 -0.561224
227 2 11.3116 15.7065 1.22057 11.3116 15.7065 1.22057
228 2 11.7007 15.4153 -2.05967 11.7007 15.4153 -2.05967
229 1 12.3384 13.7202 -0.168657 12.3384 13.7202 -0.168657
230 2 14.2612 13.9017 1.50806 14.2612 13.9017 1.50806
231 2 14.2329 13.5674 -1.7947 14.2329 13.5674 -1.7947
232 1 15.2603 15.4334 -0.307777 15.2603 15.4334 -0.307777
233 2 17.1245 15.4728 1.42152 17.1245 15.4728 1.42152
234 2 17.2954 15.2279 -1.83889 17.2954 15.2279 -1.83889
235 1 18.1456 13.7748 -0.000494373 18.1456 13.7748 -0.000494373
236 2 20.0076 13.7618 1.63179 20.0076 13.7618 1.63179
237 2 20.157 13.8113 -1.6455 20.157 13.8113 -1.6455
238 1 20.9998 15.5255 -0.0128457 20.9998 15.5255 -0.0128457
239 2 23.0088 15.5368 1.51616 23.0088 15.5368 1.51616
240 2 22.8053 15.5383 -1.69293 22.8053 15.5383 -1.69293
241 1 23.7475 13.7496 -0.143165 23.7475 13.7496 -0.143165
242 2 25.7335 13.834 1.44749 25.7335 13.834 1.44749
243 2 25.5076 13.8681 -1.85429 25.5076 13.8681 -1.85429
244 1 26.6208 15.4249 -0.299268 26.6208 15.4249 -0.299268
245 2 28.4987 15.4972 1.47069 28.4987 15.4972 1.47069
246 2 28.5505 15.4293 -1.89866 28.5505 15.4293 -1.89866
247 1 29.4915 13.8224 -0.192414 29.4915 13.8224 -0.192414
248 2 31.4295 13.9284 1.42869 31.4295 13.9284 1.42869
249 2 31.4045 13.6464 -1.77738 31.4045 13.6464 -1.77738
250 1 32.3363 15.4552 -0.284589 32.3363 15.4552 -0.284589
251 2 34.0817 15.6052 1.59181 34.0817 15.6052 1.59181
252 2 34.5441 15.3993 -1.54214 34.5441 15.3993 -1.54214
253 1 35.2125 13.9006 0.351325 35.2125 13.9006 0.351325
254 2 37.0774 13.6995 2.05579 37.0774 13.6995 2.05579
255 2 37.1895 14.0402 -1.15197 37.1895 14.0402 -1.15197
256 1 38.0716 15.6231 0.592177 38.0716 15.6231 0.592177
257 2 40.0699 15.6598 2.0598 40.0699 15.6598 2.0598
258 2 40.0247 15.5194 -1.14291 40.0247 15.5194 -1.14291
259 1 40.9765 13.7676 0.508116 40.9765 13.7676 0.508116
260 2 42.8786 13.77 2.04579 42.8786 13.77 2.04579
261 2 42.8276 13.5898 -1.14456 42.8276 13.5898 -1.14456
262 1 43.8248 15.4924 0.303946 43.8248 15.4924 0.303946
263 2 45.8197 15.553 1.91143 45.8197 15.553 1.91143
264 2 45.6645 15.3245 -1.28579 45.6645 15.3245 -1.28579
265 1 46.6791 13.8055 0.281244 46.6791 13.8055 0.281244
266 2 48.6261 13.7457 1.88811 48.6261 13.7457 1.88811
267 2 48.5369 13.6418 -1.39096 48.5369 13.6418 -1.39096
268 1 49.5326 15.4299 0.106065 49.5326 15.4299 0.106065
269 2 51.4045 15.6333 1.64301 51.4045 15.6333 1.64301
270 2 51.3554 15.1576 -1.54806 51.3554 15.1576 -1.54806
271 1 0.916165 17.1021 -0.259093 0.916165 17.1021 -0.259093
272 2 2.88866 17.0918 1.30342 2.88866 17.0918 1.30342
273 2 2.73807 17.1773 -2.01647 2.73807 17.1773 -2.01647
274 1 3.84354 18.7625 -0.438143 3.84354 18.7625 -0.438143
275 2 5.90741 18.9244 0.997703 5.90741 18.9244 0.997703
276 2 5.64403 18.7006 -2.16695 5.64403 18.7006 -2.16695
277 1 6.748 17.1862 -0.526678 6.748 17.1862 -0.526678
278 2 8.63147 17.1388 1.08782 8.63147 17.1388 1.08782
279 2 8.61018 17.0746 -2.17793 8.61018 17.0746 -2.17793
280 1 9.52933 18.7645 -0.626876 9.52933 18.7645 -0.626876
281 2 11.3661 18.9524 1.098 11.3661 18.9524 1.098
282 2 11.7497 18.711 -2.19761 11.7497 18.711 -2.19761
283 1 12.401 17.1252 -0.362936 12.401 17.1252 -0.362936
284 2 14.3019 17.0951 1.32825 14.3019 17.0951 1.32825
285 2 14.4049 16.994 -2.01309 14.4049 16.994 -2.01309
286 1 15.2646 18.777 -0.315026 15.2646 18.777 -0.315026
287 2 17.0474 18.8607 1.30423 17.0474 18.8607 1.30423
288 2 17.1884 18.7524 -1.90497 17.1884 18.7524 -1.90497
289 1 18.0998 17.092 -0.256551 18.0998 17.092 -0.256551
290 2 19.9565 17.2831 1.45586 19.9565 17.2831 1.45586
291 2 20.0477 17.1202 -1.80727 20.0477 17.1202 -1.80727
292 1 20.9439 18.8767 -0.132233 20.9439 18.8767 -0.132233
293 2 22.8193 18.9254 1.51601 22.8193 18.9254 1.51601
294 2 22.9062 18.9216 -1.79185 22.9062 18.9216 -1.79185
295 1 23.8052 17.2137 -0.0885021 23.8052 17.2137 -0.0885021
296 2 25.8853 17.0665 1.45947 25.8853 17.0665 1.45947
297 2 25.7351 17.1923 -1.77606 25.7351 17.1923 -1.77606
298 1 26.7443 18.9402 -0.111517 26.7443 18.9402 -0.111517
299 2 28.6211 18.7702 1.45195 28.6211 18.7702 1.45195
300 2 28.5216 19.0832 -1.89945 28.5216 19.0832 -1.89945
301 1 29.5029 17.1695 -0.242757 29.5029 17.1695 -0.242757
302 2 31.4581 17.1327 1.30181 31.4581 17.1327 1.30181
303 2 31.3004 17.1178 -1.9278 31.3004 17.1178 -1.9278
304 1 32.386 18.7878 -0.350112 32.386 18.7878 -0.350112
305 2 34.2331 19.0774 1.39112 34.2331 19.0774 1.39112
306 2 34.3659 18.8638 -1.76681 34.3659 18.8638 -1.76681
307 1 35.2392 17.1802 0.0631494 35.2392 17.1802 0.0631494
308 2 36.9438 17.4963 1.86411 36.9438 17.4963 1.86411
309 2 37.3702 17.0694 -1.38528 37.3702 17.0694 -1.38528
310 1 38.1108 18.8854 0.0684544 38.1108 18.8854 0.0684544
311 2 39.8887 18.8894 1.85281 39.8887 18.8894 1.85281
312 2 40.1709 18.8489 -1.34063 40.1709 18.8489 -1.34063
313 1 41.0538 17.2261 0.404777 41.0538 17.2261 0.404777
314 2 43.0851 17.3053 1.9252 43.0851 17.3053 1.9252
315 2 42.8881 17.1515 -1.29515 42.8881 17.1515 -1.29515
316 1 43.9004 18.9499 0.204635 43.9004 18.9499 0.204635
317 2 45.8483 18.802 1.76138 45.8483 18.802 1.76138
318 2 45.7422 18.9206 -1.40927 45.7422 18.9206 -1.40927
319 1 46.6754 17.1275 0.131998 46.6754 17.1275 0.131998
320 2 48.6818 17.0075 1.80122 48.6818 17.0075 1.80122
321 2 48.5668 17.2241 -1.48657 48.5668 17.2241 -1.48657
322 1 49.5095 18.8704 0.187448 49.5095 18.8704 0.187448
323 2 51.7236 18.8592 1.46088 51.7236 18.8592 1.46088
324 2 51.1893 18.8646 -1.69715 51.1893 18.8646 -1.69715
325 1 0.95525 20.5563 -0.268359 0.95525 20.5563 -0.268359
326 2 3.0585 20.562 1.20831 3.0585 20.562 1.20831
327 2 2.61183 20.4414 -2.0111 2.61183 20.4414 -2.0111
328 1 3.80072 22.2662 -0.558085 3.80072 22.2662 -0.558085
329 2 5.83668 22.1938 1.10636 5.83668 22.1938 1.10636
330 2 5.58844 22.3367 -2.23749 5.58844 22.3367 -2.23749
331 1 6.5832 20.5192 -0.786751 6.5832 20.5192 -0.786751
332 2 8.48437 20.5628 0.866896 8.48437 20.5628 0.866896
333 2 8.56244 20.4056 -2.35665 8.56244 20.4056 -2.35665
334 1 9.46359 22.246 -0.776107 9.46359 22.246 -0.776107
335 2 11.3483 22.3353 0.89095 11.3483 22.3353 0.89095
336 2 11.4485 22.2019 -2.39388 11.4485 22.2019 -2.39388
337 1 12.4365 20.54 -0.636043 12.4365 20.54 -0.636043
338 2 14.1421 20.4913 1.18566 14.1421 20.4913 1.18566
339 2 14.5308 20.5837 -2.03486 14.5308 20.5837 -2.03486
340 1 15.2629 22.3307 -0.252716 15.2629 22.3307 -0.252716
341 2 17.1928 22.4678 1.39707 17.1928 22.4678 1.39707
342 2 17.2273 22.0009 -1.95679 17.2273 22.0009 -1.95679
343 1 18.0333 20.5165 -0.213114 18.0333 20.5165 -0.213114
344 2 19.9825 20.5922 1.47411 19.9825 20.5922 1.47411
345 2 19.9733 20.6348 -1.87344 19.9733 20.6348 -1.87344
346 1 20.9522 22.3865 -0.3133 20.9522 22.3865 -0.3133
347 2 22.8163 22.4612 1.2825 22.8163 22.4612 1.2825
348 2 22.8795 22.3672 -1.86068 22.8795 22.3672 -1.86068
349 1 23.7988 20.5874 -0.0989512 23.7988 20.5874 -0.0989512
350 2 25.6491 20.5602 1.5184 25.6491 20.5602 1.5184
351 2 25.6641 20.5436 -1.67212 25.6641 20.5436 -1.67212
352 1 26.7442 22.3149 -0.0784786 26.7442 22.3149 -0.0784786
353 2 28.7089 22.3116 1.50461 28.7089 22.3116 1.50461
354 2 28.621 22.2188 -1.76038 28.621 22.2188 -1.76038
355 1 29.6268 20.5404 -0.0714012 29.6268 20.5404 -0.0714012
356 2 31.5496 20.4935 1.46808 31.5496 20.4935 1.46808
357 2 31.3616 20.6049 -1.80847 31.3616 20.6049 -1.80847
358 1 32.4165 22.2935 -0.141762 32.4165 22.2935 -0.141762
359 2 34.3257 22.1564 1.54449 34.3257 22.1564 1.54449
360 2 34.3059 22.399 -1.71552 34.3059 22.399 -1.71552
361 1 35.259 20.5844 -0.205611 35.259 20.5844 -0.205611
362 2 37.1063 20.5492 1.58381 37.1063 20.5492 1.58381
363 2 37.395 20.6415 -1.58589 37.395 20.6415 -1.58589
364 1 38.1718 22.2676 0.145536 38.1718 22.2676 0.145536
365 2 40 22.1407 1.89886 40 22.1407 1.89886
366 2 40.0947 22.2824 -1.38647 40.0947 22.2824 -1.38647
367 1 40.9986 20.5936 0.249655 40.9986 20.5936 0.249655
368 2 42.9056 20.5608 1.97508 42.9056 20.5608 1.97508
369 2 42.9092 20.7208 -1.3358 42.9092 20.7208 -1.3358
370 1 43.9203 22.2251 0.377131 43.9203 22.2251 0.377131
371 2 45.7508 22.0342 1.97901 45.7508 22.0342 1.97901
372 2 45.7858 22.3875 -1.33751 45.7858 22.3875 -1.33751
373 1 46.7611 20.5362 0.14833 46.7611 20.5362 0.14833
374 2 48.5754 20.4597 1.86639 48.5754 20.4597 1.86639
375 2 48.746 20.642 -1.361 48.746 20.642 -1.361
376 1 49.5273 22.3065 0.411924 49.5273 22.3065 0.411924
377 2 51.7327 22.2558 1.64178 51.7327 22.2558 1.64178
378 2 51.0785 22.4073 -1.48374 51.0785 22.4073 -1.48374
379 1 0.971705 24.064 0.0117918 0.971705 24.064 0.0117918
380 2 3.1659 24.0571 1.21438 3.1659 24.0571 1.21438
381 2 2.5426 24.0013 -1.94862 2.5426 24.0013 -1.94862
382 1 3.843 25.7771 -0.554987 3.843 25.7771 -0.554987
383 2 5.93105 25.7159 1.04601 5.93105 25.7159 1.04601
384 2 5.6828 25.6163 -2.21195 5.6828 25.6163 -2.21195
385 1 6.63996 23.9098 -0.575532 6.63996 23.9098 -0.575532
386 2 8.64419 23.9641 0.835941 8.64419 23.9641 0.835941
387 2 8.36827 23.8478 -2.39041 8.36827 23.8478 -2.39041
388 1 9.47204 25.6785 -1.0115 9.47204 25.6785 -1.0115
389 2 11.2029 25.639 0.734823 11.2029 25.639 0.734823
390 2 11.5051 25.6333 -2.49353 11.5051 25.6333 -2.49353
391 1 12.3719 23.9765 -0.747793 12.3719 23.9765 -0.747793
392 2 14.0572 24.2828 1.0429 14.0572 24.2828 1.0429
393 2 14.4208 23.7078 -2.14448 14.4208 23.7078 -2.14448
394 1 15.1629 25.6949 -0.760743 15.1629 25.6949 -0.760743
395 2 17.0143 25.729 1.16747 17.0143 25.729 1.16747
396 2 17.2206 25.6692 -2.07339 17.2206 25.6692 -2.07339
397 1 18.0747 24.0792 -0.423022 18.0747 24.0792 -0.423022
398 2 19.9305 24.1251 1.22346 19.9305 24.1251 1.22346
399 2 20.0256 24.0513 -1.96173 20.0256 24.0513 -1.96173
400 1 21.0911 25.8723 -0.475594 21.0911 25.8723 -0.475594
401 2 22.9526 25.8406 1.30418 22.9526 25.8406 1.30418
402 2 23.0939 25.7683 -1.93871 23.0939 25.7683 -1.93871
403 1 23.862 24.0536 -0.374957 23.862 24.0536 -0.374957
404 2 25.707 24.1558 1.35312 25.707 24.1558 1.35312
405 2 25.853 24.0426 -1.86829 25.853 24.0426 -1.86829
406 1 26.7886 25.7486 -0.300362 26.7886 25.7486 -0.300362
407 2 28.6377 25.6765 1.30177 28.6377 25.6765 1.30177
408 2 28.6859 25.7791 -1.84068 28.6859 25.7791 -1.84068
409 1 29.5701 23.9481 -0.20218 29.5701 23.9481 -0.20218
410 2 31.5365 24.0616 1.29599 31.5365 24.0616 1.29599
411 2 31.4818 23.7152 -1.97589 31.4818 23.7152 -1.97589
412 1 32.5252 25.6698 -0.456032 32.5252 25.6698 -0.456032
413 2 34.1303 25.6662 1.37572 34.1303 25.6662 1.37572
414 2 34.6331 25.7246 -1.71573 34.6331 25.7246 -1.71573
415 1 35.353 24.0056 0.00589809 35.353 24.0056 0.00589809
416 2 37.1932 23.9491 1.73407 37.1932 23.9491 1.73407
417 2 37.3313 23.9587 -1.55826 37.3313 23.9587 -1.55826
418 1 38.1765 25.7832 0.0539689 38.1765 25.7832 0.0539689
419 2 39.9185 25.7885 1.78053 39.9185 25.7885 1.78053
420 2 40.1292 25.5435 -1.51685 40.1292 25.5435 -1.51685
421 1 40.9933 24.0388 0.283223 40.9933 24.0388 0.283223
422 2 42.9884 24.2044 1.77104 42.9884 24.2044 1.77104
423 2 42.9375 23.7607 -1.42142 42.9375 23.7607 -1.42142
424 1 43.8269 25.6723 -0.0036916 43.8269 25.6723 -0.0036916
425 2 45.6724 25.9762 1.63601 45.6724 25.9762 1.63601
426 2 45.7762 25.4137 -1.5922 45.7762 25.4137 -1.5922
427 1 46.7369 23.9733 0.433703 46.7369 23.9733 0.433703
428 2 48.7455 24.2452 1.91583 48.7455 24.2452 1.91583
429 2 48.4804 23.8159 -1.32051 48.4804 23.8159 -1.32051
430 1 49.4315 25.7193 -0.0734935 49.4315 25.7193 -0.0734935
431 2 51.3625 25.8321 1.457 51.3625 25.8321 1.457
432 2 51.454 25.6547 -1.79251 51.454 25.6547 -1.79251
433 1 0.999625 27.4261 -0.275382 0.999625 27.4261 -0.275382
434 2 3.05132 27.3391 1.15154 3.05132 27.3391 1.15154
435 2 2.74551 27.5462 -2.01329 2.74551 27.5462 -2.01329
436 1 3.88001 29.1525 -0.388381 3.88001 29.1525 -0.388381
437 2 5.82895 29.0407 1.09576 5.82895 29.0407 1.09576
438 2 5.698 29.2822 -2.11739 5.698 29.2822 -2.11739
439 1 6.76139 27.4872 -0.678251 6.76139 27.4872 -0.678251
440 2 8.8028 27.3072 0.750933 8.8028 27.3072 0.750933
441 2 8.47097 27.6306 -2.53886 8.47097 27.6306 -2.53886
442 1 9.49109 29.2175 -0.906636 9.49109 29.2175 -0.906636
443 2 11.3737 29.2333 0.711947 11.3737 29.2333 0.711947
444 2 11.5077 29.1727 -2.55579 11.5077 29.1727 -2.55579
445 1 12.3414 27.4396 -0.848855 12.3414 27.4396 -0.848855
446 2 14.1699 27.3329 0.823861 14.1699 27.3329 0.823861
447 2 14.3392 27.4552 -2.4304 14.3392 27.4552 -2.4304
448 1 15.2911 29.08 -0.77293 15.2911 29.08 -0.77293
449 2 17.1089 29.3943 1.1108 17.1089 29.3943 1.1108
450 2 17.3768 29.0225 -2.2511 17.3768 29.0225 -2.2511
451 1 18.1179 27.4434 -0.357389 18.1179 27.4434 -0.357389
452 2 20.0683 27.5026 1.23067 20.0683 27.5026 1.23067
453 2 20.064 27.5771 -2.06003 20.064 27.5771 -2.06003
454 1 21.0139 29.2271 -0.426021 21.0139 29.2271 -0.426021
455 2 22.8896 29.1894 1.21744 22.8896 29.1894 1.21744
456 2 23.058 29.0298 -2.02456 23.058 29.0298 -2.02456
457 1 23.9722 27.4706 -0.303957 23.9722 27.4706 -0.303957
458 2 25.825 27.3601 1.36599 25.825 27.3601 1.36599
459 2 25.9334 27.6023 -1.82922 25.9334 27.6023 -1.82922
460 1 26.8187 29.1702 -0.113562 26.8187 29.1702 -0.113562
461 2 28.8224 29.2022 1.42624 28.8224 29.2022 1.42624
462 2 28.728 28.9981 -1.83458 28.728 28.9981 -1.83458
463 1 29.7014 27.3711 -0.202014 29.7014 27.3711 -0.202014
464 2 31.702 27.3929 1.37899 31.702 27.3929 1.37899
465 2 31.5116 27.4923 -1.97818 31.5116 27.4923 -1.97818
466 1 32.5538 29.1298 -0.389597 32.5538 29.1298 -0.389597
467 2 34.3425 29.3441 1.42934 34.3425 29.3441 1.42934
468 2 34.5892 29.0615 -1.86151 34.5892 29.0615 -1.86151
469 1 35.3097 27.3963 0.0202098 35.3097 27.3963 0.0202098
470 2 37.3084 27.6377 1.54729 37.3084 27.6377 1.54729
471 2 37.0792 27.409 -1.70211 37.0792 27.409 -1.70211
472 1 38.086 29.1758 -0.184091 38.086 29.1758 -0.184091
473 2 39.989 29.2034 1.57157 39.989 29.2034 1.57157
474 2 40.1396 28.9641 -1.61115 40.1396 28.9641 -1.61115
475 1 40.9741 27.435 0.132791 40.9741 27.435 0.132791
476 2 43.0179 27.4028 1.63719 43.0179 27.4028 1.63719
477 2 42.7834 27.4241 -1.48405 42.7834 27.4241 -1.48405
478 1 43.8156 29.1904 0.0790884 43.8156 29.1904 0.0790884
479 2 45.9291 29.2334 1.55895 45.9291 29.2334 1.55895
480 2 45.6051 29.0732 -1.69384 45.6051 29.0732 -1.69384
481 1 46.5928 27.4569 -0.0766493 46.5928 27.4569 -0.0766493
482 2 48.5991 27.5094 1.55579 48.5991 27.5094 1.55579
483 2 48.6309 27.3401 -1.72258 48.6309 27.3401 -1.72258
484 1 49.6112 29.1526 -0.12357 49.6112 29.1526 -0.12357
485 2 51.6982 29.1958 1.29334 51.6982 29.1958 1.29334
486 2 51.3967 29.2496 -1.78505 51.3967 29.2496 -1.78505
487 1 1.0916 30.8759 -0.196566 1.0916 30.8759 -0.196566
488 2 3.13763 30.9543 1.21141 3.13763 30.9543 1.21141
489 2 2.82356 30.7773 -2.00586 2.82356 30.7773 -2.00586
490 1 3.83826 32.6425 -0.475424 3.83826 32.6425 -0.475424
491 2 5.76765 32.5459 1.23368 5.76765 32.5459 1.23368
492 2 5.80586 32.6512 -2.02794 5.80586 32.6512 -2.02794
493 1 6.67613 30.8939 -0.416856 6.67613 30.8939 -0.416856
494 2 8.83047 30.7704 0.912656 8.83047 30.7704 0.912656
495 2 8.50202 31.125 -2.20039 8.50202 31.125 -2.20039
496 1 9.67695 32.7355 -0.545153 9.67695 32.7355 -0.545153
497 2 11.6452 32.4731 0.910226 11.6452 32.4731 0.910226
498 2 11.4568 32.7482 -2.30578 11.4568 32.7482 -2.30578
499 1 12.3966 30.8903 -0.940053 12.3966 30.8903 -0.940053
500 2 14.3838 31.0071 0.677409 14.3838 31.0071 0.677409
501 2 14.3566 30.7384 -2.54528 14.3566 30.7384 -2.54528
502 1 15.2682 32.5773 -1.12052 15.2682 32.5773 -1.12052
503 2 17.0426 32.6486 0.80232 17.0426 32.6486 0.80232
504 2 17.4684 32.6638 -2.45772 17.4684 32.6638 -2.45772
505 1 18.1492 30.843 -0.760239 18.1492 30.843 -0.760239
506 2 19.7387 31.0043 1.13053 19.7387 31.0043 1.13053
507 2 20.1845 30.8626 -2.10817 20.1845 30.8626 -2.10817
508 1 21.0166 32.5436 -0.393125 21.0166 32.5436 -0.393125
509 2 22.8901 32.5958 1.18054 22.8901 32.5958 1.18054
510 2 22.9483 32.4923 -2.03733 22.9483 32.4923 -2.03733
511 1 23.876 30.8826 -0.428528 23.876 30.8826 -0.428528
512 2 25.7862 31.0195 1.25674 25.7862 31.0195 1.25674
513 2 25.8496 30.6795 -1.94234 25.8496 30.6795 -1.94234
514 1 26.7552 32.5999 -0.509282 26.7552 32.5999 -0.509282
515 2 28.6219 32.5575 1.2158 28.6219 32.5575 1.2158
516 2 28.7582 32.5192 -1.97934 28.7582 32.5192 -1.97934
517 1 29.6624 30.7931 -0.325954 29.6624 30.7931 -0.325954
518 2 31.6883 30.8319 1.38055 31.6883 30.8319 1.38055
519 2 31.5396 30.8339 -1.98015 31.5396 30.8339 -1.98015
520 1 32.5312 32.5718 -0.335323 32.5312 32.5718 -0.335323
521 2 34.307 32.6127 1.24901 34.307 32.6127 1.24901
522 2 34.5373 32.5959 -1.94275 34.5373 32.5959 -1.94275
523 1 35.3704 30.8396 -0.253257 35.3704 30.8396 -0.253257
524 2 37.1449 30.8802 1.40629 37.1449 30.8802 1.40629
525 2 37.2911 30.9239 -1.81332 37.2911 30.9239 -1.81332
526 1 38.1351 32.5524 -0.192229 38.1351 32.5524 -0.192229
527 2 39.947 32.422 1.53623 39.947 32.422 1.53623
528 2 40.1064 32.6768 -1.79865 40.1064 32.6768 -1.79865
529 1 41.0424 30.8383 -0.161642 41.0424 30.8383 -0.161642
530 2 42.7982 30.9824 1.57843 42.7982 30.9824 1.57843
531 2 42.9099 30.7964 -1.70181 42.9099 30.7964 -1.70181
532 1 43.7919 32.5787 -0.127852 43.7919 32.5787 -0.127852
533 2 45.8291 32.5585 1.34507 45.8291 32.5585 1.34507
534 2 45.6897 32.4622 -1.8743 45.6897 32.4622 -1.8743
535 1 46.7232 30.8109 -0.227576 46.7232 30.8109 -0.227576
536 2 48.7041 30.9537 1.39691 48.7041 30.9537 1.39691
537 2 48.5925 30.7793 -1.81731 48.5925 30.7793 -1.81731
538 1 49.6024 32.5138 -0.243002 49.6024 32.5138 -0.243002