ITEM: TIMESTEP
648000
ITEM: NUMBER OF ATOMS
810
ITEM: BOX BOUNDS pp pp pp
8.0341777045796159e-01 5.2214187229542503e+01
-7.9488822296786188e-01 5.1811103222966729e+01
-1.0000000000000000e+01 1.0000000000000000e+01
ITEM: ATOMS id type x y z xu yu zu
1 1 0.927684 -0.580056 -0.382508 0.927684 -0.580056 -0.382508
2 2 2.77161 -0.608976 1.44033 2.77161 -0.608976 1.44033
3 2 3.03937 -0.676968 -1.79186 3.03937 -0.676968 -1.79186
4 1 3.88543 1.09664 0.0233446 3.88543 1.09664 0.0233446
5 2 5.72838 0.945857 1.81751 5.72838 0.945857 1.81751
6 2 5.86639 1.17878 -1.40131 5.86639 1.17878 -1.40131
7 1 6.7417 -0.641269 0.120787 6.7417 -0.641269 0.120787
8 2 8.5511 -0.633023 1.88897 8.5511 -0.633023 1.88897
9 2 8.79673 -0.700798 -1.39397 8.79673 -0.700798 -1.39397
10 1 9.52768 1.1295 0.26034 9.52768 1.1295 0.26034
11 2 11.2693 1.00548 2.07216 11.2693 1.00548 2.07216
12 2 11.6228 1.20187 -1.1692 11.6228 1.20187 -1.1692
13 1 12.3749 -0.639019 0.483468 12.3749 -0.639019 0.483468
14 2 14.3818 -0.799986 2.15493 14.3818 -0.799986 2.15493
15 2 14.4689 -0.467598 -1.08706 14.4689 -0.467598 -1.08706
16 1 15.3401 1.17862 0.712735 15.3401 1.17862 0.712735
17 2 17.4984 1.36693 1.95446 17.4984 1.36693 1.95446
18 2 17.0639 1.10179 -1.13215 17.0639 1.10179 -1.13215
19 1 18.197 -0.597464 0.289837 18.197 -0.597464 0.289837
20 2 20.1172 52.1265 2.04537 20.1172 -0.479516 2.04537
21 2 20.2083 -0.630098 -1.25172 20.2083 -0.630098 -1.25172
22 1 21.0567 1.138 0.32034 21.0567 1.138 0.32034
23 2 23.0212 1.08706 1.8796 23.0212 1.08706 1.8796
24 2 22.966 1.15285 -1.36668 22.966 1.15285 -1.36668
25 1 23.8919 -0.643894 0.0935447 23.8919 -0.643894 0.0935447
26 2 25.7593 -0.606234 1.71794 25.7593 -0.606234 1.71794
27 2 25.806 -0.680438 -1.61454 25.806 -0.680438 -1.61454
28 1 26.7321 1.06014 0.123955 26.7321 1.06014 0.123955
29 2 28.7594 1.19291 1.60871 28.7594 1.19291 1.60871
30 2 28.5011 1.11693 -1.60718 28.5011 1.11693 -1.60718
31 1 29.6108 -0.648981 -0.0467209 29.6108 -0.648981 -0.0467209
32 2 31.6137 -0.428153 1.53876 31.6137 -0.428153 1.53876
33 2 31.4056 -0.822139 -1.79169 31.4056 -0.822139 -1.79169
34 1 32.3756 1.16435 -0.338769 32.3756 1.16435 -0.338769
35 2 34.2454 1.18024 1.42638 34.2454 1.18024 1.42638
36 2 34.3486 1.27966 -1.91302 34.3486 1.27966 -1.91302
37 1 35.1457 -0.541958 -0.336392 35.1457 -0.541958 -0.336392
38 2 37.1265 -0.522195 1.16689 37.1265 -0.522195 1.16689
39 2 37.0966 -0.557736 -2.06227 37.0966 -0.557736 -2.06227
40 1 38.0515 1.23079 -0.47761 38.0515 1.23079 -0.47761
41 2 39.8907 1.09668 1.21664 39.8907 1.09668 1.21664
42 2 40.1031 1.37114 -1.96611 40.1031 1.37114 -1.96611
43 1 40.9724 -0.628011 -0.421358 40.9724 -0.628011 -0.421358
44 2 42.9021 -0.653792 1.39301 42.9021 -0.653792 1.39301
45 2 43.0062 -0.542778 -1.89775 43.0062 -0.542778 -1.89775
46 1 43.8259 1.19111 -0.181044 43.8259 1.19111 -0.181044
47 2 45.7006 1.27875 1.45468 45.7006 1.27875 1.45468
48 2 45.6988 1.05712 -1.69335 45.6988 1.05712 -1.69335
49 1 46.5996 -0.617338 0.0552575 46.5996 -0.617338 0.0552575
50 2 48.5756 -0.700209 1.58256 48.5756 -0.700209 1.58256
51 2 48.6327 -0.657459 -1.59232 48.6327 -0.657459 -1.59232
52 1 49.6075 1.10641 -0.000993389 49.6075 1.10641 -0.000993389
53 2 51.4964 0.909879 1.5128 51.4964 0.909879 1.5128
54 2 51.3987 1.22598 -1.79945 51.3987 1.22598 -1.79945
55 1 0.978612 2.84705 -0.0113905 0.978612 2.84705 -0.0113905
56 2 2.93086 2.93316 1.58394 2.93086 2.93316 1.58394
57 2 2.77702 2.84795 -1.64532 2.77702 2.84795 -1.64532
58 1 3.8737 4.58735 -0.080205 3.8737 4.58735 -0.080205
59 2 5.6878 4.84393 1.57501 5.6878 4.84393 1.57501
60 2 5.88628 4.45019 -1.59208 5.88628 4.45019 -1.59208
61 1 6.71041 2.90033 0.330002 6.71041 2.90033 0.330002
62 2 8.72311 2.99193 1.93909 8.72311 2.99193 1.93909
63 2 8.67103 2.81241 -1.3987 8.67103 2.81241 -1.3987
64 1 9.56497 4.61134 0.130636 9.56497 4.61134 0.130636
65 2 11.211 4.62093 2.11115 11.211 4.62093 2.11115
66 2 11.8023 4.74555 -1.0753 11.8023 4.74555 -1.0753
67 1 12.4274 2.90061 0.610553 12.4274 2.90061 0.610553
68 2 14.3829 2.94742 2.1473 14.3829 2.94742 2.1473
69 2 14.4011 2.71979 -1.00485 14.4011 2.71979 -1.00485
70 1 15.2952 4.63033 0.47772 15.2952 4.63033 0.47772
71 2 17.3104 4.62595 2.04296 17.3104 4.62595 2.04296
72 2 17.0554 4.85652 -1.25505 17.0554 4.85652 -1.25505
73 1 18.2467 2.95315 0.170102 18.2467 2.95315 0.170102
74 2 19.9836 3.17025 1.86625 19.9836 3.17025 1.86625
75 2 20.1683 2.89734 -1.43077 20.1683 2.89734 -1.43077
76 1 21.0662 4.75522 0.145961 21.0662 4.75522 0.145961
77 2 23.0141 4.75193 1.76235 23.0141 4.75193 1.76235
78 2 22.8618 4.43766 -1.44103 22.8618 4.43766 -1.44103
79 1 23.9502 2.85792 0.280208 23.9502 2.85792 0.280208
80 2 25.9439 2.76377 1.80254 25.9439 2.76377 1.80254
81 2 25.8044 2.73393 -1.49737 25.8044 2.73393 -1.49737
82 1 26.6879 4.59909 0.0781815 26.6879 4.59909 0.0781815
83 2 28.7086 4.62948 1.62093 28.7086 4.62948 1.62093
84 2 28.525 4.62909 -1.60071 28.525 4.62909 -1.60071
85 1 29.6059 2.89773 -0.0550129 29.6059 2.89773 -0.0550129
86 2 31.5778 2.71395 1.43202 31.5778 2.71395 1.43202
87 2 31.282 3.15315 -1.77184 31.282 3.15315 -1.77184
88 1 32.3533 4.63163 -0.131915 32.3533 4.63163 -0.131915
89 2 34.2844 4.70108 1.51037 34.2844 4.70108 1.51037
90 2 34.3016 4.74893 -1.71529 34.3016 4.74893 -1.71529
91 1 35.228 3.07637 -0.125168 35.228 3.07637 -0.125168
92 2 37.2789 2.81793 1.34111 37.2789 2.81793 1.34111
93 2 37.2388 3.09072 -1.92391 37.2388 3.09072 -1.92391
94 1 38.2164 4.74074 -0.214468 38.2164 4.74074 -0.214468
95 2 40.061 4.81339 1.4508 40.061 4.81339 1.4508
96 2 40.1055 4.6575 -1.90657 40.1055 4.6575 -1.90657
97 1 40.9922 2.96606 -0.193424 40.9922 2.96606 -0.193424
98 2 42.7419 2.66739 1.59896 42.7419 2.66739 1.59896
99 2 43.0194 3.10722 -1.62677 43.0194 3.10722 -1.62677
100 1 43.9039 4.64031 0.200581 43.9039 4.64031 0.200581
101 2 45.9966 4.75519 1.55904 45.9966 4.75519 1.55904
102 2 45.7307 4.70258 -1.61366 45.7307 4.70258 -1.61366
103 1 46.6568 2.94759 -0.185158 46.6568 2.94759 -0.185158
104 2 48.5807 2.92048 1.59364 48.5807 2.92048 1.59364
105 2 48.7279 3.0148 -1.62809 48.7279 3.0148 -1.62809
106 1 49.4647 4.75113 0.08252 49.4647 4.75113 0.08252
107 2 51.3754 4.51451 1.73857 51.3754 4.51451 1.73857
108 2 51.342 4.69441 -1.45602 51.342 4.69441 -1.45602
109 1 0.998008 6.32749 0.159942 0.998008 6.32749 0.159942
110 2 2.9753 6.33614 1.64207 2.9753 6.33614 1.64207
111 2 2.7776 6.32855 -1.60183 2.7776 6.32855 -1.60183
112 1 3.80247 8.08761 0.0432469 3.80247 8.08761 0.0432469
113 2 5.7183 8.13432 1.57557 5.7183 8.13432 1.57557
114 2 5.68514 8.12939 -1.68472 5.68514 8.12939 -1.68472
115 1 6.72413 6.37048 -0.212732 6.72413 6.37048 -0.212732
116 2 8.32427 6.20205 1.74442 8.32427 6.20205 1.74442
117 2 8.94197 6.59217 -1.45174 8.94197 6.59217 -1.45174
118 1 9.51925 8.19413 0.454442 9.51925 8.19413 0.454442
119 2 11.3904 8.33507 2.1733 11.3904 8.33507 2.1733
120 2 11.6539 7.98152 -1.18931 11.6539 7.98152 -1.18931
121 1 12.4828 6.36965 0.70206 12.4828 6.36965 0.70206
122 2 14.4864 6.46961 2.18596 14.4864 6.46961 2.18596
123 2 14.3461 6.32496 -1.0266 14.3461 6.32496 -1.0266
124 1 15.3281 8.15846 0.559076 15.3281 8.15846 0.559076
125 2 17.3555 8.23692 2.07489 17.3555 8.23692 2.07489
126 2 17.1804 8.06901 -1.18971 17.1804 8.06901 -1.18971
127 1 18.2094 6.35098 0.442613 18.2094 6.35098 0.442613
128 2 20.3193 6.48445 1.90646 20.3193 6.48445 1.90646
129 2 19.8904 6.39896 -1.29585 19.8904 6.39896 -1.29585
130 1 21.0828 8.18378 0.252159 21.0828 8.18378 0.252159
131 2 23.1316 8.15234 1.83606 23.1316 8.15234 1.83606
132 2 22.8664 8.11638 -1.43969 22.8664 8.11638 -1.43969
133 1 23.8664 6.4171 0.109961 23.8664 6.4171 0.109961
134 2 25.8106 6.35341 1.72904 25.8106 6.35341 1.72904
135 2 25.8141 6.42179 -1.50362 25.8141 6.42179 -1.50362
136 1 26.8484 8.1055 0.0862393 26.8484 8.1055 0.0862393
137 2 28.8165 8.20623 1.58991 28.8165 8.20623 1.58991
138 2 28.5373 7.98384 -1.66883 28.5373 7.98384 -1.66883
139 1 29.5915 6.3603 0.0393057 29.5915 6.3603 0.0393057
140 2 31.5644 6.34332 1.47647 31.5644 6.34332 1.47647
141 2 31.3457 6.321 -1.661 31.3457 6.321 -1.661
142 1 32.3869 8.14735 -0.112194 32.3869 8.14735 -0.112194
143 2 34.3504 8.34452 1.43565 34.3504 8.34452 1.43565
144 2 34.2502 8.14266 -1.8322 34.2502 8.14266 -1.8322
145 1 35.2198 6.47444 -0.104944 35.2198 6.47444 -0.104944
146 2 37.186 6.37662 1.37558 37.186 6.37662 1.37558
147 2 37.0724 6.62374 -1.76152 37.0724 6.62374 -1.76152
148 1 38.0757 8.29992 -0.136243 38.0757 8.29992 -0.136243
149 2 40.0418 8.18503 1.40976 40.0418 8.18503 1.40976
150 2 40.0337 8.23374 -1.80532 40.0337 8.23374 -1.80532
151 1 41.0381 6.4166 -0.211422 41.0381 6.4166 -0.211422
152 2 42.7456 6.63258 1.55519 42.7456 6.63258 1.55519
153 2 43.1586 6.34808 -1.62761 43.1586 6.34808 -1.62761
154 1 43.9292 8.24946 -0.128156 43.9292 8.24946 -0.128156
155 2 45.7628 8.41363 1.47373 45.7628 8.41363 1.47373
156 2 45.9449 8.33989 -1.72073 45.9449 8.33989 -1.72073
157 1 46.7486 6.58331 -0.0119121 46.7486 6.58331 -0.0119121
158 2 48.5733 6.59836 1.57084 48.5733 6.59836 1.57084
159 2 48.5646 6.49905 -1.64164 48.5646 6.49905 -1.64164
160 1 49.5005 8.23445 -0.123066 49.5005 8.23445 -0.123066
161 2 51.3561 8.2723 1.60616 51.3561 8.2723 1.60616
162 2 51.407 8.07176 -1.74968 51.407 8.07176 -1.74968
163 1 0.94266 9.85011 -0.173344 0.94266 9.85011 -0.173344
164 2 2.9215 9.9606 1.38828 2.9215 9.9606 1.38828
165 2 2.80305 9.64512 -1.77263 2.80305 9.64512 -1.77263
166 1 3.7419 11.6345 -0.440113 3.7419 11.6345 -0.440113
167 2 5.57414 11.8044 1.41792 5.57414 11.8044 1.41792
168 2 5.82952 11.7388 -1.77777 5.82952 11.7388 -1.77777
169 1 6.67975 10.0157 0.000456071 6.67975 10.0157 0.000456071
170 2 8.38389 10.009 1.85307 8.38389 10.009 1.85307
171 2 8.86965 9.84814 -1.39197 8.86965 9.84814 -1.39197
172 1 9.65128 11.6946 0.187556 9.65128 11.6946 0.187556
173 2 11.4978 11.766 1.97085 11.4978 11.766 1.97085
174 2 11.7315 11.8467 -1.30038 11.7315 11.8467 -1.30038
175 1 12.5277 9.9599 0.416224 12.5277 9.9599 0.416224
176 2 14.3761 9.83922 2.15186 14.3761 9.83922 2.15186
177 2 14.5338 9.91716 -1.06145 14.5338 9.91716 -1.06145
178 1 15.3149 11.7307 0.585096 15.3149 11.7307 0.585096
179 2 17.4282 11.7543 1.90872 17.4282 11.7543 1.90872
180 2 17.0469 11.5867 -1.31978 17.0469 11.5867 -1.31978
181 1 18.1582 9.95716 0.297245 18.1582 9.95716 0.297245
182 2 20.1986 10.0361 1.8059 20.1986 10.0361 1.8059
183 2 20.0153 9.68401 -1.4081 20.0153 9.68401 -1.4081
184 1 21.0543 11.7098 0.0177773 21.0543 11.7098 0.0177773
185 2 23.0629 11.8217 1.67055 23.0629 11.8217 1.67055
186 2 22.9091 11.6191 -1.64074 22.9091 11.6191 -1.64074
187 1 23.9076 9.97342 0.0899111 23.9076 9.97342 0.0899111
188 2 25.8242 9.888 1.6704 25.8242 9.888 1.6704
189 2 25.8325 9.71566 -1.57037 25.8325 9.71566 -1.57037
190 1 26.6931 11.7498 -0.0140473 26.6931 11.7498 -0.0140473
191 2 28.9047 11.8036 1.33043 28.9047 11.8036 1.33043
192 2 28.3397 11.6327 -1.90991 28.3397 11.6327 -1.90991
193 1 29.5184 9.86092 -0.256574 29.5184 9.86092 -0.256574
194 2 31.5247 10.0607 1.38372 31.5247 10.0607 1.38372
195 2 31.3381 9.81492 -1.91291 31.3381 9.81492 -1.91291
196 1 32.3977 11.6648 -0.450521 32.3977 11.6648 -0.450521
197 2 34.2882 11.8301 1.24254 34.2882 11.8301 1.24254
198 2 34.2894 11.6991 -1.86665 34.2894 11.6991 -1.86665
199 1 35.1989 9.99256 -0.216434 35.1989 9.99256 -0.216434
200 2 37.0708 10.0916 1.38286 37.0708 10.0916 1.38286
201 2 37.1352 9.9289 -1.78976 37.1352 9.9289 -1.78976
202 1 38.1463 11.7609 -0.277688 38.1463 11.7609 -0.277688
203 2 39.9112 11.7688 1.38882 39.9112 11.7688 1.38882
204 2 40.117 11.7928 -1.82196 40.117 11.7928 -1.82196
205 1 40.9473 10.0048 -0.214136 40.9473 10.0048 -0.214136
206 2 42.8075 9.97888 1.45254 42.8075 9.97888 1.45254
207 2 42.8805 10.0378 -1.80222 42.8805 10.0378 -1.80222
208 1 43.7968 11.7664 -0.0230615 43.7968 11.7664 -0.0230615
209 2 45.8545 11.7614 1.53908 45.8545 11.7614 1.53908
210 2 45.6591 11.8632 -1.68366 45.6591 11.8632 -1.68366
211 1 46.752 10.1281 -0.179119 46.752 10.1281 -0.179119
212 2 48.6572 10.0329 1.47307 48.6572 10.0329 1.47307
213 2 48.5677 10.0408 -1.7924 48.5677 10.0408 -1.7924
214 1 49.5689 11.7358 -0.239742 49.5689 11.7358 -0.239742
215 2 51.6916 11.8131 1.23739 51.6916 11.8131 1.23739
216 2 51.4038 11.6376 -1.97689 51.4038 11.6376 -1.97689
217 1 1.08992 13.487 -0.589629 1.08992 13.487 -0.589629
218 2 2.93265 13.4067 1.21254 2.93265 13.4067 1.21254
219 2 3.03037 13.3688 -2.14309 3.03037 13.3688 -2.14309
220 1 3.88747 15.1919 -0.499453 3.88747 15.1919 -0.499453
221 2 5.66802 15.3685 1.3176 5.66802 15.3685 1.3176
222 2 5.94451 15.018 -1.92423 5.94451 15.018 -1.92423
223 1 6.67951 13.4578 -0.0829376 6.67951 13.4578 -0.0829376
224 2 8.5483 13.6042 1.55178 8.5483 13.6042 1.55178
225 2 8.68905 13.2487 -1.60265 8.68905 13.2487 -1.60265
226 1 9.60411 15.1426 -0.168431 9.60411 15.1426 -0.168431
227 2 11.188 15.3226 1.76388 11.188 15.3226 1.76388
228 2 11.8279 15.0513 -1.5001 11.8279 15.0513 -1.5001
229 1 12.5388 13.5029 0.430691 12.5388 13.5029 0.430691
230 2 14.4028 13.6136 2.09756 14.4028 13.6136 2.09756
231 2 14.4489 13.4915 -1.15248 14.4489 13.4915 -1.15248
232 1 15.3688 15.2653 0.405285 15.3688 15.2653 0.405285
233 2 17.432 15.3087 1.82295 17.432 15.3087 1.82295
234 2 17.1299 15.4358 -1.43795 17.1299 15.4358 -1.43795
235 1 18.1301 13.4818 0.0951426 18.1301 13.4818 0.0951426
236 2 20.0478 13.5857 1.65249 20.0478 13.5857 1.65249
237 2 20.042 13.3353 -1.6446 20.042 13.3353 -1.6446
238 1 21.0608 15.1291 -0.0711199 21.0608 15.1291 -0.0711199
239 2 22.9921 15.2999 1.4765 22.9921 15.2999 1.4765
240 2 22.8174 15.1881 -1.7949 22.8174 15.1881 -1.7949
241 1 23.956 13.5138 -0.130563 23.956 13.5138 -0.130563
242 2 25.8872 13.776 1.4693 25.8872 13.776 1.4693
243 2 25.8372 13.2702 -1.8245 25.8372 13.2702 -1.8245
244 1 26.7553 15.2795 -0.384208 26.7553 15.2795 -0.384208
245 2 28.8267 15.1683 1.15168 28.8267 15.1683 1.15168
246 2 28.5829 15.069 -2.0826 28.5829 15.069 -2.0826
247 1 29.4864 13.3663 -0.481191 29.4864 13.3663 -0.481191
248 2 31.4823 13.5547 1.11619 31.4823 13.5547 1.11619
249 2 31.4221 13.4154 -2.12023 31.4221 13.4154 -2.12023
250 1 32.3278 15.0795 -0.559297 32.3278 15.0795 -0.559297
251 2 34.2826 15.3913 1.25349 34.2826 15.3913 1.25349
252 2 34.3456 14.9901 -2.09525 34.3456 14.9901 -2.09525
253 1 35.2087 13.4759 -0.338664 35.2087 13.4759 -0.338664
254 2 37.1723 13.6414 1.29339 37.1723 13.6414 1.29339
255 2 37.0884 13.5236 -1.95849 37.0884 13.5236 -1.95849
256 1 38.0628 15.2759 -0.45394 38.0628 15.2759 -0.45394
257 2 39.9302 15.272 1.42105 39.9302 15.272 1.42105
258 2 40.2088 15.2808 -1.81328 40.2088 15.2808 -1.81328
259 1 40.9391 13.5332 -0.0830864 40.9391 13.5332 -0.0830864
260 2 42.8189 13.3119 1.67573 42.8189 13.3119 1.67573
261 2 42.9731 13.7202 -1.50394 42.9731 13.7202 -1.50394
262 1 43.8659 15.4037 0.282672 43.8659 15.4037 0.282672
263 2 46.0105 15.4789 1.65467 46.0105 15.4789 1.65467
264 2 45.443 15.305 -1.58343 45.443 15.305 -1.58343
265 1 46.6286 13.6468 -0.0734518 46.6286 13.6468 -0.0734518
266 2 48.5619 13.4553 1.43508 48.5619 13.4553 1.43508
267 2 48.5248 13.6637 -1.83023 48.5248 13.6637 -1.83023
268 1 49.5842 15.2507 -0.205152 49.5842 15.2507 -0.205152
269 2 51.606 15.2465 1.13668 51.606 15.2465 1.13668
270 2 51.3091 15.4062 -2.04696 51.3091 15.4062 -2.04696
271 1 1.00694 16.8962 -0.530289 1.00694 16.8962 -0.530289
272 2 2.92554 16.8196 1.14106 2.92554 16.8196 1.14106
273 2 3.0066 16.9505 -2.06477 3.0066 16.9505 -2.06477
274 1 3.84476 18.6546 -0.349446 3.84476 18.6546 -0.349446
275 2 5.86901 18.5883 1.25028 5.86901 18.5883 1.25028
276 2 5.76336 18.5876 -1.95357 5.76336 18.5876 -1.95357
277 1 6.74383 16.9454 -0.428002 6.74383 16.9454 -0.428002
278 2 8.49871 16.7386 1.42352 8.49871 16.7386 1.42352
279 2 8.83922 17.0508 -1.85143 8.83922 17.0508 -1.85143
280 1 9.51005 18.6179 -0.038639 9.51005 18.6179 -0.038639
281 2 11.4351 18.6553 1.64346 11.4351 18.6553 1.64346
282 2 11.526 18.718 -1.56995 11.526 18.718 -1.56995
283 1 12.4555 16.9145 0.129419 12.4555 16.9145 0.129419
284 2 14.3079 17.1905 1.80777 14.3079 17.1905 1.80777
285 2 14.4935 16.9333 -1.42656 14.4935 16.9333 -1.42656
286 1 15.2517 18.7489 0.0532921 15.2517 18.7489 0.0532921
287 2 17.0693 18.8837 1.68805 17.0693 18.8837 1.68805
288 2 17.2412 18.7379 -1.55283 17.2412 18.7379 -1.55283
289 1 18.1652 17.0773 0.180103 18.1652 17.0773 0.180103
290 2 20.2212 17.2173 1.58513 20.2212 17.2173 1.58513
291 2 19.8978 16.8201 -1.72115 19.8978 16.8201 -1.72115
292 1 21.0229 18.7665 -0.371811 21.0229 18.7665 -0.371811
293 2 23.0892 18.8833 1.31333 23.0892 18.8833 1.31333
294 2 22.9522 18.5534 -2.01162 22.9522 18.5534 -2.01162
295 1 23.9709 17.0415 -0.338933 23.9709 17.0415 -0.338933
296 2 25.9996 17.1943 1.12316 25.9996 17.1943 1.12316
297 2 25.6765 16.9786 -2.13433 25.6765 16.9786 -2.13433
298 1 26.8319 18.7566 -0.712893 26.8319 18.7566 -0.712893
299 2 28.4965 18.8577 1.07199 28.4965 18.8577 1.07199
300 2 28.8133 18.6471 -2.24878 28.8133 18.6471 -2.24878
301 1 29.5928 16.9809 -0.509474 29.5928 16.9809 -0.509474
302 2 31.6105 16.9828 0.972671 31.6105 16.9828 0.972671
303 2 31.2728 16.7998 -2.22233 31.2728 16.7998 -2.22233
304 1 32.3151 18.6913 -0.880931 32.3151 18.6913 -0.880931
305 2 34.2062 18.8182 0.786327 34.2062 18.8182 0.786327
306 2 34.1777 18.5928 -2.43248 34.1777 18.5928 -2.43248
307 1 35.1072 16.8834 -0.630981 35.1072 16.8834 -0.630981
308 2 36.9756 16.851 1.07422 36.9756 16.851 1.07422
309 2 37.2686 16.8536 -2.11743 37.2686 16.8536 -2.11743
310 1 38.0389 18.7606 -0.415573 38.0389 18.7606 -0.415573
311 2 39.8388 18.6351 1.36261 39.8388 18.6351 1.36261
312 2 40.0368 18.752 -1.89905 40.0368 18.752 -1.89905
313 1 40.9274 16.9771 -0.137927 40.9274 16.9771 -0.137927
314 2 42.6172 17.2107 1.64335 42.6172 17.2107 1.64335
315 2 42.9197 16.8646 -1.48725 42.9197 16.8646 -1.48725
316 1 43.7482 18.7692 0.0971468 43.7482 18.7692 0.0971468
317 2 45.973 18.8294 1.46925 45.973 18.8294 1.46925
318 2 45.5337 18.9622 -1.69012 45.5337 18.9622 -1.69012
319 1 46.7129 17.1168 -0.155119 46.7129 17.1168 -0.155119
320 2 48.7792 17.0851 1.48728 48.7792 17.0851 1.48728
321 2 48.6526 16.9672 -1.72705 48.6526 16.9672 -1.72705
322 1 49.5111 18.7495 -0.203617 49.5111 18.7495 -0.203617
323 2 51.5897 18.6256 1.19278 51.5897 18.6256 1.19278
324 2 51.2585 18.6946 -2.03862 51.2585 18.6946 -2.03862
325 1 0.956652 20.4652 -0.582571 0.956652 20.4652 -0.582571
326 2 2.87579 20.5555 1.02898 2.87579 20.5555 1.02898
327 2 2.83206 20.1012 -2.16134 2.83206 20.1012 -2.16134
328 1 3.89156 22.0837 -0.747268 3.89156 22.0837 -0.747268
329 2 5.77722 22.1715 1.14804 5.77722 22.1715 1.14804
330 2 6.07263 22.2229 -2.14815 6.07263 22.2229 -2.14815
331 1 6.75408 20.4682 -0.345884 6.75408 20.4682 -0.345884
332 2 8.54769 20.5459 1.33546 8.54769 20.5459 1.33546
333 2 8.60038 20.2554 -1.88794 8.60038 20.2554 -1.88794
334 1 9.58216 22.1588 -0.306288 9.58216 22.1588 -0.306288
335 2 11.263 22.3464 1.40615 11.263 22.3464 1.40615
336 2 11.722 22.2522 -1.77219 11.722 22.2522 -1.77219
337 1 12.4322 20.4388 -0.00224592 12.4322 20.4388 -0.00224592
338 2 14.3251 20.5512 1.66363 14.3251 20.5512 1.66363
339 2 14.4028 20.4882 -1.73284 14.4028 20.4882 -1.73284
340 1 15.2751 22.2056 -0.0437945 15.2751 22.2056 -0.0437945
341 2 17.2847 22.5274 1.52945 17.2847 22.5274 1.52945
342 2 17.2574 22.0444 -1.74095 17.2574 22.0444 -1.74095
343 1 18.1294 20.5379 0.0141431 18.1294 20.5379 0.0141431
344 2 20.3195 20.4017 1.36933 20.3195 20.4017 1.36933
345 2 19.8592 20.3966 -1.84199 19.8592 20.3966 -1.84199
346 1 20.9729 22.2107 -0.363344 20.9729 22.2107 -0.363344
347 2 22.8711 22.0746 1.22069 22.8711 22.0746 1.22069
348 2 22.8212 22.3235 -2.00294 22.8212 22.3235 -2.00294
349 1 23.9156 20.4365 -0.471141 23.9156 20.4365 -0.471141
350 2 25.8829 20.3414 0.976721 25.8829 20.3414 0.976721
351 2 25.8675 20.534 -2.12332 25.8675 20.534 -2.12332
352 1 26.7097 22.2823 -0.405867 26.7097 22.2823 -0.405867
353 2 28.5958 22.4545 1.10368 28.5958 22.4545 1.10368
354 2 28.522 22.1391 -2.06251 28.522 22.1391 -2.06251
355 1 29.4487 20.5401 -0.494402 29.4487 20.5401 -0.494402
356 2 31.636 20.3975 0.913238 31.636 20.3975 0.913238
357 2 31.3005 20.5557 -2.31412 31.3005 20.5557 -2.31412
358 1 32.4222 22.2016 -0.708916 32.4222 22.2016 -0.708916
359 2 34.2547 21.933 0.895236 34.2547 21.933 0.895236
360 2 34.2928 22.3913 -2.29781 34.2928 22.3913 -2.29781
361 1 35.1471 20.4913 -0.871941 35.1471 20.4913 -0.871941
362 2 36.9183 20.5895 0.909983 36.9183 20.5895 0.909983
363 2 37.3721 20.4427 -2.25136 37.3721 20.4427 -2.25136
364 1 38.0316 22.307 -0.617093 38.0316 22.307 -0.617093
365 2 39.8281 22.4968 1.14214 39.8281 22.4968 1.14214
366 2 40.0439 21.9391 -2.06562 40.0439 21.9391 -2.06562
367 1 40.9034 20.4846 -0.161225 40.9034 20.4846 -0.161225
368 2 42.8037 20.7434 1.48621 42.8037 20.7434 1.48621
369 2 42.8352 20.2038 -1.70812 42.8352 20.2038 -1.70812
370 1 43.8153 22.2565 -0.336661 43.8153 22.2565 -0.336661
371 2 45.5317 22.5455 1.23852 45.5317 22.5455 1.23852
372 2 45.7281 22.1143 -2.04021 45.7281 22.1143 -2.04021
373 1 46.6822 20.5993 -0.181398 46.6822 20.5993 -0.181398
374 2 48.6979 20.7306 1.27607 48.6979 20.7306 1.27607
375 2 48.587 20.3408 -1.81408 48.587 20.3408 -1.81408
376 1 49.555 22.2316 -0.559712 49.555 22.2316 -0.559712
377 2 51.4836 22.1941 1.02116 51.4836 22.1941 1.02116
378 2 51.5858 22.2449 -2.17954 51.5858 22.2449 -2.17954
379 1 1.05741 23.9619 -0.547654 1.05741 23.9619 -0.547654
380 2 3.08405 23.9494 0.95028 3.08405 23.9494 0.95028
381 2 2.8105 23.9237 -2.3316 2.8105 23.9237 -2.3316
382 1 3.86121 25.7635 -0.752321 3.86121 25.7635 -0.752321
383 2 5.61341 25.6868 1.04756 5.61341 25.6868 1.04756
384 2 5.86931 25.614 -2.10373 5.86931 25.614 -2.10373
385 1 6.69984 23.9073 -0.413099 6.69984 23.9073 -0.413099
386 2 8.59886 24.0931 1.22956 8.59886 24.0931 1.22956
387 2 8.71194 24.0465 -1.92194 8.71194 24.0465 -1.92194
388 1 9.59306 25.8132 -0.35999 9.59306 25.8132 -0.35999
389 2 11.389 25.753 1.43903 11.389 25.753 1.43903
390 2 11.547 25.8064 -1.87219 11.547 25.8064 -1.87219
391 1 12.401 24.0231 -0.12546 12.401 24.0231 -0.12546
392 2 14.3044 23.9757 1.6599 14.3044 23.9757 1.6599
393 2 14.4411 24.2069 -1.57732 14.4411 24.2069 -1.57732
394 1 15.2185 25.885 0.087291 15.2185 25.885 0.087291
395 2 17.2064 25.7892 1.48951 17.2064 25.7892 1.48951
396 2 17.1889 25.9845 -1.69276 17.1889 25.9845 -1.69276
397 1 18.0807 24.1109 -0.358461 18.0807 24.1109 -0.358461
398 2 20.0793 24.096 1.29507 20.0793 24.096 1.29507
399 2 20.0888 24.0469 -1.98599 20.0888 24.0469 -1.98599
400 1 20.9491 25.8302 -0.33269 20.9491 25.8302 -0.33269
401 2 22.9547 25.9479 1.27095 22.9547 25.9479 1.27095
402 2 22.7839 25.7045 -1.98481 22.7839 25.7045 -1.98481
403 1 23.7938 24.0204 -0.296928 23.7938 24.0204 -0.296928
404 2 25.8511 23.7975 1.32647 25.8511 23.7975 1.32647
405 2 25.6642 24.1292 -1.95669 25.6642 24.1292 -1.95669
406 1 26.761 25.761 -0.257386 26.761 25.761 -0.257386
407 2 28.9347 25.6993 1.00008 28.9347 25.6993 1.00008
408 2 28.4265 25.8051 -2.21145 28.4265 25.8051 -2.21145
409 1 29.5625 24.0182 -0.712098 29.5625 24.0182 -0.712098
410 2 31.561 24.0175 0.866379 31.561 24.0175 0.866379
411 2 31.4972 23.9979 -2.32808 31.4972 23.9979 -2.32808
412 1 32.416 25.7709 -0.700492 32.416 25.7709 -0.700492
413 2 34.3971 25.9122 1.02805 34.3971 25.9122 1.02805
414 2 34.3441 25.7913 -2.3016 34.3441 25.7913 -2.3016
415 1 35.2658 24.0359 -0.547138 35.2658 24.0359 -0.547138
416 2 37.2662 24.1274 0.971604 37.2662 24.1274 0.971604
417 2 36.9754 23.9217 -2.24667 36.9754 23.9217 -2.24667
418 1 38.044 25.7532 -0.718935 38.044 25.7532 -0.718935
419 2 39.9597 25.6372 0.897633 39.9597 25.6372 0.897633
420 2 40.1447 25.6996 -2.23586 40.1447 25.6996 -2.23586
421 1 40.9157 23.924 -0.595123 40.9157 23.924 -0.595123
422 2 42.8494 24.1368 1.12911 42.8494 24.1368 1.12911
423 2 42.8996 23.8405 -2.07366 42.8996 23.8405 -2.07366
424 1 43.8828 25.7573 -0.528012 43.8828 25.7573 -0.528012
425 2 45.709 25.6275 1.17123 45.709 25.6275 1.17123
426 2 45.8199 25.6743 -2.1373 45.8199 25.6743 -2.1373
427 1 46.6727 23.9566 -0.52364 46.6727 23.9566 -0.52364
428 2 48.5762 23.8888 1.04353 48.5762 23.8888 1.04353
429 2 48.5664 23.8764 -2.14526 48.5664 23.8764 -2.14526
430 1 49.5284 25.6485 -0.593546 49.5284 25.6485 -0.593546
431 2 51.533 25.8403 0.953174 51.533 25.8403 0.953174
432 2 51.486 25.5321 -2.202 51.486 25.5321 -2.202
433 1 0.966962 27.3979 -0.835561 0.966962 27.3979 -0.835561
434 2 2.77159 27.3705 0.831731 2.77159 27.3705 0.831731
435 2 2.91112 27.409 -2.4182 2.91112 27.409 -2.4182
436 1 3.77613 29.1959 -0.746013 3.77613 29.1959 -0.746013
437 2 5.70145 29.2353 0.929053 5.70145 29.2353 0.929053
438 2 5.6706 29.0391 -2.23417 5.6706 29.0391 -2.23417
439 1 6.71294 27.4351 -0.529639 6.71294 27.4351 -0.529639
440 2 8.47806 27.6563 1.13671 8.47806 27.6563 1.13671
441 2 8.55383 27.2936 -2.11088 8.55383 27.2936 -2.11088
442 1 9.47635 29.1945 -0.571803 9.47635 29.1945 -0.571803
443 2 11.2389 29.3263 1.26071 11.2389 29.3263 1.26071
444 2 11.65 29.14 -1.93924 11.65 29.14 -1.93924
445 1 12.4061 27.6166 -0.168671 12.4061 27.6166 -0.168671
446 2 14.2318 27.6802 1.47428 14.2318 27.6802 1.47428
447 2 14.3923 27.4315 -1.71503 14.3923 27.4315 -1.71503
448 1 15.2089 29.33 -0.203222 15.2089 29.33 -0.203222
449 2 17.0627 29.4435 1.47331 17.0627 29.4435 1.47331
450 2 17.1685 29.3762 -1.78562 17.1685 29.3762 -1.78562
451 1 18.0976 27.6131 -0.0371607 18.0976 27.6131 -0.0371607
452 2 20.046 27.6897 1.36317 20.046 27.6897 1.36317
453 2 19.9254 27.5428 -1.80679 19.9254 27.5428 -1.80679
454 1 20.9082 29.3129 -0.259383 20.9082 29.3129 -0.259383
455 2 23.017 29.3424 1.19167 23.017 29.3424 1.19167
456 2 22.7352 29.3141 -1.89806 22.7352 29.3141 -1.89806
457 1 23.8965 27.5656 -0.428423 23.8965 27.5656 -0.428423
458 2 25.7057 27.5974 1.23343 25.7057 27.5974 1.23343
459 2 25.9216 27.3809 -2.02514 25.9216 27.3809 -2.02514
460 1 26.6649 29.347 -0.46341 26.6649 29.347 -0.46341
461 2 28.574 29.1277 1.11653 28.574 29.1277 1.11653
462 2 28.5174 29.4544 -2.13532 28.5174 29.4544 -2.13532
463 1 29.4935 27.5563 -0.655975 29.4935 27.5563 -0.655975
464 2 31.5096 27.6742 0.879727 31.5096 27.6742 0.879727
465 2 31.3549 27.4496 -2.30518 31.3549 27.4496 -2.30518
466 1 32.407 29.2769 -0.862173 32.407 29.2769 -0.862173
467 2 34.2866 29.3037 0.964504 34.2866 29.3037 0.964504
468 2 34.4223 29.4431 -2.303 34.4223 29.4431 -2.303
469 1 35.2662 27.6383 -0.741476 35.2662 27.6383 -0.741476
470 2 37.1176 27.5702 0.905262 37.1176 27.5702 0.905262
471 2 37.1044 27.5305 -2.34058 37.1044 27.5305 -2.34058
472 1 38.1273 29.3027 -0.729075 38.1273 29.3027 -0.729075
473 2 39.9987 29.2909 0.999538 39.9987 29.2909 0.999538
474 2 40.0386 29.3681 -2.22846 40.0386 29.3681 -2.22846
475 1 40.9743 27.5142 -0.597655 40.9743 27.5142 -0.597655
476 2 42.7794 27.4764 1.11895 42.7794 27.4764 1.11895
477 2 42.9831 27.6623 -2.1811 42.9831 27.6623 -2.1811
478 1 43.7193 29.25 -0.407241 43.7193 29.25 -0.407241
479 2 45.6873 29.2745 1.23323 45.6873 29.2745 1.23323
480 2 45.7598 29.2845 -2.0172 45.7598 29.2845 -2.0172
481 1 46.6691 27.4553 -0.502084 46.6691 27.4553 -0.502084
482 2 48.7201 27.2727 1.14543 48.7201 27.2727 1.14543
483 2 48.7003 27.5499 -2.12101 48.7003 27.5499 -2.12101
484 1 49.5249 29.1951 -0.510769 49.5249 29.1951 -0.510769
485 2 51.5324 29.1098 1.00892 51.5324 29.1098 1.00892
486 2 51.2681 29.391 -2.37666 51.2681 29.391 -2.37666
487 1 0.968599 31.0792 -0.770182 0.968599 31.0792 -0.770182
488 2 2.85032 30.8943 0.915787 2.85032 30.8943 0.915787
489 2 2.90149 30.9964 -2.46203 2.90149 30.9964 -2.46203
490 1 3.75701 32.7073 -0.608231 3.75701 32.7073 -0.608231
491 2 5.78201 32.7687 1.07218 5.78201 32.7687 1.07218
492 2 5.64782 32.6568 -2.23769 5.64782 32.6568 -2.23769
493 1 6.60658 30.8714 -0.725112 6.60658 30.8714 -0.725112
494 2 8.44197 30.855 1.00441 8.44197 30.855 1.00441
495 2 8.59047 31.07 -2.25709 8.59047 31.07 -2.25709
496 1 9.52929 32.7382 -0.466927 9.52929 32.7382 -0.466927
497 2 11.283 32.8194 1.20795 11.283 32.8194 1.20795
498 2 11.3935 32.6984 -2.12315 11.3935 32.6984 -2.12315
499 1 12.3442 30.9956 -0.277911 12.3442 30.9956 -0.277911
500 2 14.2491 31.0013 1.39623 14.2491 31.0013 1.39623
501 2 14.1996 30.883 -1.88269 14.1996 30.883 -1.88269
502 1 15.1607 32.8097 -0.204777 15.1607 32.8097 -0.204777
503 2 17.1022 32.6954 1.29854 17.1022 32.6954 1.29854
504 2 17.0961 32.8509 -1.89033 17.0961 32.8509 -1.89033
505 1 18.0755 31.1273 -0.202836 18.0755 31.1273 -0.202836
506 2 20.0389 30.9981 1.36731 20.0389 30.9981 1.36731
507 2 19.998 31.0676 -1.7814 19.998 31.0676 -1.7814
508 1 21.0077 32.7981 -0.202625 21.0077 32.7981 -0.202625
509 2 22.9497 32.7053 1.41874 22.9497 32.7053 1.41874
510 2 22.8136 32.8279 -1.90272 22.8136 32.8279 -1.90272
511 1 23.8548 31.0905 -0.398647 23.8548 31.0905 -0.398647
512 2 25.8289 31.0699 1.10159 25.8289 31.0699 1.10159
513 2 25.7418 31.1207 -2.08506 25.7418 31.1207 -2.08506
514 1 26.7076 32.8654 -0.396588 26.7076 32.8654 -0.396588
515 2 28.4846 32.6854 1.25897 28.4846 32.6854 1.25897
516 2 28.6021 32.8186 -2.03863 28.6021 32.8186 -2.03863
517 1 29.455 31.0355 -0.364306 29.455 31.0355 -0.364306
518 2 31.5588 30.8228 1.007 31.5588 30.8228 1.007
519 2 31.2896 31.2209 -2.22378 31.2896 31.2209 -2.22378
520 1 32.3471 32.8067 -0.481819 32.3471 32.8067 -0.481819
521 2 34.2968 32.7974 1.19584 34.2968 32.7974 1.19584
522 2 34.3191 32.9965 -2.11085 34.3191 32.9965 -2.11085
523 1 35.2437 31.1594 -0.456742 35.2437 31.1594 -0.456742
524 2 37.2675 31.108 0.962399 37.2675 31.108 0.962399
525 2 37.0304 31.1749 -2.26546 37.0304 31.1749 -2.26546
526 1 38.1326 32.7739 -0.672574 38.1326 32.7739 -0.672574
527 2 40.0274 32.7953 1.06303 40.0274 32.7953 1.06303
528 2 40.1719 32.8327 -2.1535 40.1719 32.8327 -2.1535
529 1 41.0051 31.0742 -0.479119 41.0051 31.0742 -0.479119
530 2 42.7591 31.1182 1.27947 42.7591 31.1182 1.27947
531 2 42.9232 31.0489 -2.05696 42.9232 31.0489 -2.05696
532 1 43.77 32.7491 -0.336993 43.77 32.7491 -0.336993
533 2 45.6632 32.7386 1.31331 45.6632 32.7386 1.31331
534 2 45.7173 32.8917 -1.87274 45.7173 32.8917 -1.87274
535 1 46.6225 31.0287 -0.399689 46.6225 31.0287 -0.399689
536 2 48.4866 30.8938 1.21416 48.4866 30.8938 1.21416