ITEM: TIMESTEP
1916000
ITEM: NUMBER OF ATOMS
810
ITEM: BOX BOUNDS pp pp pp
8.0341777045796159e-01 5.2214187229542503e+01
-3.9271382771303838e+00 5.4943353277129255e+01
-1.0000000000000000e+01 1.0000000000000000e+01
ITEM: ATOMS id type x y z xu yu zu
1 1 0.970869 -3.75997 -0.354181 0.970869 -3.75997 -0.354181
2 2 2.76742 -3.78474 1.51182 2.76742 -3.78474 1.51182
3 2 3.1594 -3.68075 -1.69096 3.1594 -3.68075 -1.69096
4 1 3.88986 -1.80413 0.0826753 3.88986 -1.80413 0.0826753
5 2 5.73378 -1.66928 1.8185 5.73378 -1.66928 1.8185
6 2 5.9302 -1.86567 -1.42269 5.9302 -1.86567 -1.42269
7 1 6.6852 -3.74032 0.297692 6.6852 -3.74032 0.297692
8 2 8.62576 -3.80549 1.86848 8.62576 -3.80549 1.86848
9 2 8.54401 -3.85382 -1.37859 8.54401 -3.85382 -1.37859
10 1 9.47745 -1.70769 0.167111 9.47745 -1.70769 0.167111
11 2 11.4714 -1.6726 1.73896 11.4714 -1.6726 1.73896
12 2 11.5151 -1.66556 -1.40781 11.5151 -1.66556 -1.40781
13 1 12.4172 -3.66784 0.355269 12.4172 -3.66784 0.355269
14 2 14.5044 -3.38379 1.95934 14.5044 -3.38379 1.95934
15 2 14.2533 -3.73433 -1.26554 14.2533 -3.73433 -1.26554
16 1 15.2278 -1.62663 0.123098 15.2278 -1.62663 0.123098
17 2 17.2054 -1.52099 1.70819 17.2054 -1.52099 1.70819
18 2 17.1965 -1.76294 -1.48211 17.1965 -1.76294 -1.48211
19 1 18.1835 -3.63716 0.191078 18.1835 -3.63716 0.191078
20 2 20.2786 -3.68394 1.73074 20.2786 -3.68394 1.73074
21 2 19.9511 -3.63272 -1.57359 19.9511 -3.63272 -1.57359
22 1 20.9514 -1.59027 0.00100461 20.9514 -1.59027 0.00100461
23 2 22.9538 -1.6791 1.56636 22.9538 -1.6791 1.56636
24 2 22.9277 -1.38081 -1.69066 22.9277 -1.38081 -1.69066
25 1 23.86 -3.53569 -0.219878 23.86 -3.53569 -0.219878
26 2 25.8961 -3.42955 1.45586 25.8961 -3.42955 1.45586
27 2 26.0128 -3.54624 -1.68946 26.0128 -3.54624 -1.68946
28 1 26.7062 -1.54624 -0.236055 26.7062 -1.54624 -0.236055
29 2 28.5069 -1.52502 1.47173 28.5069 -1.52502 1.47173
30 2 28.7358 -1.78907 -1.6466 28.7358 -1.78907 -1.6466
31 1 29.5379 -3.62835 0.046024 29.5379 -3.62835 0.046024
32 2 31.4767 -3.79664 1.58728 31.4767 -3.79664 1.58728
33 2 31.4755 -3.40604 -1.53676 31.4755 -3.40604 -1.53676
34 1 32.3479 -1.69865 0.211523 32.3479 -1.69865 0.211523
35 2 34.4197 -1.51065 1.65498 34.4197 -1.51065 1.65498
36 2 34.1192 -1.73981 -1.62138 34.1192 -1.73981 -1.62138
37 1 35.2548 -3.54336 -0.0223346 35.2548 -3.54336 -0.0223346
38 2 37.165 -3.6691 1.57466 37.165 -3.6691 1.57466
39 2 37.1736 -3.4228 -1.68222 37.1736 -3.4228 -1.68222
40 1 38.1045 -1.58812 0.0134925 38.1045 -1.58812 0.0134925
41 2 40.1752 -1.55351 1.51776 40.1752 -1.55351 1.51776
42 2 39.8831 -1.68121 -1.73076 39.8831 -1.68121 -1.73076
43 1 40.8854 -3.62147 -0.182108 40.8854 -3.62147 -0.182108
44 2 42.8554 -3.58164 1.32768 42.8554 -3.58164 1.32768
45 2 42.7778 -3.57135 -1.66509 42.7778 -3.57135 -1.66509
46 1 43.7125 -1.58455 -0.190587 43.7125 -1.58455 -0.190587
47 2 45.6473 -1.80364 1.49658 45.6473 -1.80364 1.49658
48 2 45.7979 -1.54407 -1.69054 45.7979 -1.54407 -1.69054
49 1 46.6435 -3.71483 -0.116423 46.6435 -3.71483 -0.116423
50 2 48.6285 -3.92547 1.38063 48.6285 -3.92547 1.38063
51 2 48.6308 -3.51222 -1.76397 48.6308 -3.51222 -1.76397
52 1 49.6047 -1.66408 -0.0528066 49.6047 -1.66408 -0.0528066
53 2 51.6826 -1.77951 1.37016 51.6826 -1.77951 1.37016
54 2 51.3532 -1.63443 -1.82117 51.3532 -1.63443 -1.82117
55 1 1.03578 0.193563 -0.185492 1.03578 0.193563 -0.185492
56 2 2.78824 0.267287 1.55045 2.78824 0.267287 1.55045
57 2 3.24821 0.0656639 -1.61378 3.24821 0.0656639 -1.61378
58 1 3.87051 2.10055 0.0722376 3.87051 2.10055 0.0722376
59 2 6.04594 2.23873 1.65358 6.04594 2.23873 1.65358
60 2 5.85578 2.13468 -1.45358 5.85578 2.13468 -1.45358
61 1 6.71812 0.156931 0.0911626 6.71812 0.156931 0.0911626
62 2 8.45256 0.0868357 1.86548 8.45256 0.0868357 1.86548
63 2 8.85329 0.302532 -1.30961 8.85329 0.302532 -1.30961
64 1 9.58248 2.28279 0.447133 9.58248 2.28279 0.447133
65 2 11.8504 2.22849 1.66442 11.8504 2.22849 1.66442
66 2 11.4979 2.27937 -1.36825 11.4979 2.27937 -1.36825
67 1 12.4596 0.29852 0.110919 12.4596 0.29852 0.110919
68 2 14.4088 0.28828 1.78409 14.4088 0.28828 1.78409
69 2 14.3342 0.256428 -1.46728 14.3342 0.256428 -1.46728
70 1 15.1508 2.31888 0.0745852 15.1508 2.31888 0.0745852
71 2 17.2537 2.37166 1.54555 17.2537 2.37166 1.54555
72 2 17.1111 2.2179 -1.54333 17.1111 2.2179 -1.54333
73 1 18.0437 0.222708 0.0186395 18.0437 0.222708 0.0186395
74 2 20.0394 0.320718 1.55387 20.0394 0.320718 1.55387
75 2 19.9353 0.174195 -1.66512 19.9353 0.174195 -1.66512
76 1 20.9423 2.14185 -0.181113 20.9423 2.14185 -0.181113
77 2 22.8488 2.17804 1.48418 22.8488 2.17804 1.48418
78 2 23.0113 2.13354 -1.69285 23.0113 2.13354 -1.69285
79 1 23.9129 0.269957 -0.0361643 23.9129 0.269957 -0.0361643
80 2 26.0128 0.163653 1.53565 26.0128 0.163653 1.53565
81 2 25.7023 0.556663 -1.7195 25.7023 0.556663 -1.7195
82 1 26.7602 2.24139 0.0312238 26.7602 2.24139 0.0312238
83 2 28.7801 2.14967 1.45485 28.7801 2.14967 1.45485
84 2 28.5905 2.35663 -1.68379 28.5905 2.35663 -1.68379
85 1 29.5362 0.229775 -0.0623231 29.5362 0.229775 -0.0623231
86 2 31.3717 0.162119 1.72903 31.3717 0.162119 1.72903
87 2 31.6409 0.327473 -1.49237 31.6409 0.327473 -1.49237
88 1 32.364 2.20714 0.209708 32.364 2.20714 0.209708
89 2 34.5069 2.10833 1.64341 34.5069 2.10833 1.64341
90 2 34.1679 2.20147 -1.57889 34.1679 2.20147 -1.57889
91 1 35.1933 0.314655 -0.104641 35.1933 0.314655 -0.104641
92 2 37.1391 0.360493 1.53736 37.1391 0.360493 1.53736
93 2 37.302 0.288089 -1.62301 37.302 0.288089 -1.62301
94 1 38.0561 2.31105 -0.071412 38.0561 2.31105 -0.071412
95 2 39.9963 2.44387 1.40653 39.9963 2.44387 1.40653
96 2 39.9791 2.40103 -1.76568 39.9791 2.40103 -1.76568
97 1 40.9211 0.477806 -0.120198 40.9211 0.477806 -0.120198
98 2 42.941 0.332417 1.48051 42.941 0.332417 1.48051
99 2 42.8801 0.36781 -1.74782 42.8801 0.36781 -1.74782
100 1 43.7799 2.18947 -0.152498 43.7799 2.18947 -0.152498
101 2 45.6692 2.18883 1.50582 45.6692 2.18883 1.50582
102 2 45.7815 2.04349 -1.68602 45.7815 2.04349 -1.68602
103 1 46.6902 0.177257 0.0297408 46.6902 0.177257 0.0297408
104 2 48.8393 0.202344 1.52104 48.8393 0.202344 1.52104
105 2 48.6255 0.157634 -1.70158 48.6255 0.157634 -1.70158
106 1 49.6092 2.167 -0.312092 49.6092 2.167 -0.312092
107 2 51.3873 2.08818 1.36786 51.3873 2.08818 1.36786
108 2 51.6047 2.21273 -1.79069 51.6047 2.21273 -1.79069
109 1 0.95308 4.17558 -0.0398268 0.95308 4.17558 -0.0398268
110 2 2.9295 4.04774 1.59042 2.9295 4.04774 1.59042
111 2 3.00073 4.04016 -1.60663 3.00073 4.04016 -1.60663
112 1 3.72946 6.03086 -0.0543918 3.72946 6.03086 -0.0543918
113 2 5.83241 6.21727 1.48757 5.83241 6.21727 1.48757
114 2 5.62696 5.90852 -1.61433 5.62696 5.90852 -1.61433
115 1 6.67195 4.18794 0.0406228 6.67195 4.18794 0.0406228
116 2 8.64876 4.54673 1.68246 8.64876 4.54673 1.68246
117 2 8.65427 3.97795 -1.45911 8.65427 3.97795 -1.45911
118 1 9.52368 6.20362 -0.100046 9.52368 6.20362 -0.100046
119 2 11.5235 6.15031 1.48312 11.5235 6.15031 1.48312
120 2 11.5689 6.04089 -1.68792 11.5689 6.04089 -1.68792
121 1 12.3906 4.27753 0.00787565 12.3906 4.27753 0.00787565
122 2 14.3077 4.26861 1.60943 14.3077 4.26861 1.60943
123 2 14.2774 4.1196 -1.664 14.2774 4.1196 -1.664
124 1 15.2978 6.19155 -0.244993 15.2978 6.19155 -0.244993
125 2 17.0781 6.17401 1.54722 17.0781 6.17401 1.54722
126 2 17.4448 6.22109 -1.73843 17.4448 6.22109 -1.73843
127 1 18.1555 4.04605 -0.116249 18.1555 4.04605 -0.116249
128 2 20.0545 4.00417 1.52394 20.0545 4.00417 1.52394
129 2 20.2105 4.09643 -1.71158 20.2105 4.09643 -1.71158
130 1 20.9954 6.06636 0.049402 20.9954 6.06636 0.049402
131 2 22.9993 6.11987 1.66823 22.9993 6.11987 1.66823
132 2 23.0088 6.23118 -1.62724 23.0088 6.23118 -1.62724
133 1 23.9089 4.1589 -0.0634055 23.9089 4.1589 -0.0634055
134 2 25.6277 4.00216 1.62941 25.6277 4.00216 1.62941
135 2 26.0808 4.22984 -1.55324 26.0808 4.22984 -1.55324
136 1 26.7758 6.09343 0.242021 26.7758 6.09343 0.242021
137 2 28.8566 6.16841 1.5943 28.8566 6.16841 1.5943
138 2 28.5702 6.27911 -1.56264 28.5702 6.27911 -1.56264
139 1 29.6673 4.08592 -0.175123 29.6673 4.08592 -0.175123
140 2 31.4032 4.23902 1.52053 31.4032 4.23902 1.52053
141 2 31.7126 4.20108 -1.62816 31.7126 4.20108 -1.62816
142 1 32.4342 6.16707 -0.140809 32.4342 6.16707 -0.140809
143 2 34.3825 5.99906 1.55076 34.3825 5.99906 1.55076
144 2 34.4331 6.11306 -1.66422 34.4331 6.11306 -1.66422
145 1 35.1833 4.14178 0.0360489 35.1833 4.14178 0.0360489
146 2 37.3421 4.2742 1.49629 37.3421 4.2742 1.49629
147 2 37.1049 4.18484 -1.5832 37.1049 4.18484 -1.5832
148 1 38.0311 6.20914 -0.0935904 38.0311 6.20914 -0.0935904
149 2 39.996 6.37071 1.45334 39.996 6.37071 1.45334
150 2 40.0625 6.17649 -1.73506 40.0625 6.17649 -1.73506
151 1 40.9119 4.33072 -0.0971397 40.9119 4.33072 -0.0971397
152 2 43.0175 4.26817 1.40638 43.0175 4.26817 1.40638
153 2 42.8953 4.13177 -1.71246 42.8953 4.13177 -1.71246
154 1 43.7806 6.13594 -0.247605 43.7806 6.13594 -0.247605
155 2 45.7516 6.17914 1.43727 45.7516 6.17914 1.43727
156 2 45.6989 6.12654 -1.8474 45.6989 6.12654 -1.8474
157 1 46.6993 4.17071 -0.192851 46.6993 4.17071 -0.192851
158 2 48.763 4.25471 1.3235 48.763 4.25471 1.3235
159 2 48.5463 4.00545 -1.85538 48.5463 4.00545 -1.85538
160 1 49.4763 6.08662 -0.32776 49.4763 6.08662 -0.32776
161 2 51.4489 6.37115 1.26199 51.4489 6.37115 1.26199
162 2 51.5001 5.94499 -1.8239 51.5001 5.94499 -1.8239
163 1 0.927594 8.13911 -0.445432 0.927594 8.13911 -0.445432
164 2 2.70032 8.10586 1.28986 2.70032 8.10586 1.28986
165 2 3.05656 7.94503 -1.82648 3.05656 7.94503 -1.82648
166 1 3.84213 9.99495 -0.325786 3.84213 9.99495 -0.325786
167 2 5.84344 9.93529 1.29925 5.84344 9.93529 1.29925
168 2 5.84152 10.0957 -1.84272 5.84152 10.0957 -1.84272
169 1 6.63284 7.97178 -0.379975 6.63284 7.97178 -0.379975
170 2 8.44835 8.10939 1.44094 8.44835 8.10939 1.44094
171 2 8.7095 8.09187 -1.87091 8.7095 8.09187 -1.87091
172 1 9.57969 9.93237 -0.184327 9.57969 9.93237 -0.184327
173 2 11.6753 9.91644 1.38254 11.6753 9.91644 1.38254
174 2 11.4904 10.0449 -1.73127 11.4904 10.0449 -1.73127
175 1 12.4845 8.02723 -0.200689 12.4845 8.02723 -0.200689
176 2 14.4993 8.05061 1.29401 14.4993 8.05061 1.29401
177 2 14.2383 8.10083 -1.88318 14.2383 8.10083 -1.88318
178 1 15.2894 10.0164 -0.39321 15.2894 10.0164 -0.39321
179 2 17.2613 10.1605 1.33509 17.2613 10.1605 1.33509
180 2 17.3381 9.94437 -1.82593 17.3381 9.94437 -1.82593
181 1 18.1694 8.1193 -0.0938892 18.1694 8.1193 -0.0938892
182 2 20.1193 8.05136 1.59018 20.1193 8.05136 1.59018
183 2 20.344 8.12324 -1.52609 20.344 8.12324 -1.52609
184 1 21.1103 9.94716 0.0681232 21.1103 9.94716 0.0681232
185 2 23.053 9.92651 1.61812 23.053 9.92651 1.61812
186 2 23.0777 9.99936 -1.52608 23.0777 9.99936 -1.52608
187 1 23.966 8.05126 0.0284064 23.966 8.05126 0.0284064
188 2 25.8978 7.91421 1.79831 25.8978 7.91421 1.79831
189 2 25.9487 7.82567 -1.45975 25.9487 7.82567 -1.45975
190 1 26.7697 10.021 0.178117 26.7697 10.021 0.178117
191 2 28.9221 10.1202 1.66493 28.9221 10.1202 1.66493
192 2 28.5843 10.1635 -1.56788 28.5843 10.1635 -1.56788
193 1 29.5898 8.16643 -0.0219857 29.5898 8.16643 -0.0219857
194 2 31.6267 8.24703 1.57716 31.6267 8.24703 1.57716
195 2 31.6524 8.14725 -1.66273 31.6524 8.14725 -1.66273
196 1 32.4256 10.0283 -0.0638936 32.4256 10.0283 -0.0638936
197 2 34.3402 10.1477 1.4936 34.3402 10.1477 1.4936
198 2 34.4571 10.1216 -1.60325 34.4571 10.1216 -1.60325
199 1 35.2075 8.14887 -0.0579408 35.2075 8.14887 -0.0579408
200 2 37.1501 8.14108 1.56094 37.1501 8.14108 1.56094
201 2 37.2721 8.21283 -1.69223 37.2721 8.21283 -1.69223
202 1 38.0558 10.1023 -0.183494 38.0558 10.1023 -0.183494
203 2 40.0336 10.4857 1.1972 40.0336 10.4857 1.1972
204 2 39.8353 9.99448 -2.02761 39.8353 9.99448 -2.02761
205 1 41.0304 8.24652 -0.252147 41.0304 8.24652 -0.252147
206 2 42.8317 8.07182 1.35704 42.8317 8.07182 1.35704
207 2 42.9418 8.26571 -1.82822 42.9418 8.26571 -1.82822
208 1 43.7672 10.1199 -0.270009 43.7672 10.1199 -0.270009
209 2 45.6825 10.07 1.37894 45.6825 10.07 1.37894
210 2 45.6925 10.1022 -1.83074 45.6925 10.1022 -1.83074
211 1 46.5472 8.12916 -0.253152 46.5472 8.12916 -0.253152
212 2 48.5513 8.13997 1.24298 48.5513 8.13997 1.24298
213 2 48.5143 8.1165 -1.96012 48.5143 8.1165 -1.96012
214 1 49.4368 10.2117 -0.419297 49.4368 10.2117 -0.419297
215 2 51.5095 10.2482 1.13808 51.5095 10.2482 1.13808
216 2 51.3706 10.0246 -2.10962 51.3706 10.0246 -2.10962
217 1 0.911898 11.9769 -0.647632 0.911898 11.9769 -0.647632
218 2 2.77618 11.9643 1.08593 2.77618 11.9643 1.08593
219 2 3.07703 11.8767 -2.00765 3.07703 11.8767 -2.00765
220 1 3.90892 13.9322 -0.39701 3.90892 13.9322 -0.39701
221 2 5.76668 13.9166 1.42262 5.76668 13.9166 1.42262
222 2 5.77292 13.7817 -1.91475 5.77292 13.7817 -1.91475
223 1 6.76188 12.0003 -0.257597 6.76188 12.0003 -0.257597
224 2 8.69943 11.9326 1.42218 8.69943 11.9326 1.42218
225 2 8.71126 12.0133 -1.86789 8.71126 12.0133 -1.86789
226 1 9.54431 13.941 -0.118511 9.54431 13.941 -0.118511
227 2 11.4638 13.9942 1.51108 11.4638 13.9942 1.51108
228 2 11.3916 13.934 -1.74847 11.3916 13.934 -1.74847
229 1 12.3929 11.9498 -0.235571 12.3929 11.9498 -0.235571
230 2 14.4141 11.9765 1.26 14.4141 11.9765 1.26
231 2 14.3428 11.9093 -1.85463 14.3428 11.9093 -1.85463
232 1 15.2803 13.9787 -0.371698 15.2803 13.9787 -0.371698
233 2 17.1059 13.9699 1.28672 17.1059 13.9699 1.28672
234 2 17.246 13.9971 -1.90589 17.246 13.9971 -1.90589
235 1 18.1414 11.9457 -0.335426 18.1414 11.9457 -0.335426
236 2 20.1746 12.0389 1.54569 20.1746 12.0389 1.54569
237 2 20.2749 11.8534 -1.73261 20.2749 11.8534 -1.73261
238 1 21.1184 13.8801 -0.127262 21.1184 13.8801 -0.127262
239 2 23.0541 14.086 1.60841 23.0541 14.086 1.60841
240 2 23.132 13.8307 -1.62747 23.132 13.8307 -1.62747
241 1 23.9013 11.861 0.122563 23.9013 11.861 0.122563
242 2 26.0336 11.9737 1.71087 26.0336 11.9737 1.71087
243 2 25.598 11.7476 -1.5565 25.598 11.7476 -1.5565
244 1 26.7332 13.8989 -0.0679997 26.7332 13.8989 -0.0679997
245 2 28.6602 13.9891 1.56551 28.6602 13.9891 1.56551
246 2 28.7412 14.0095 -1.70589 28.7412 14.0095 -1.70589
247 1 29.6807 11.9882 -0.0206009 29.6807 11.9882 -0.0206009
248 2 31.6258 12.0985 1.51341 31.6258 12.0985 1.51341
249 2 31.3629 11.8132 -1.70679 31.3629 11.8132 -1.70679
250 1 32.3728 13.9155 -0.174365 32.3728 13.9155 -0.174365
251 2 34.2241 14.1257 1.49572 34.2241 14.1257 1.49572
252 2 34.3813 14.1187 -1.79653 34.3813 14.1187 -1.79653
253 1 35.2252 12.0999 -0.0608834 35.2252 12.0999 -0.0608834
254 2 37.2391 12.2209 1.44577 37.2391 12.2209 1.44577
255 2 36.9951 12.0556 -1.75847 36.9951 12.0556 -1.75847
256 1 38.1056 14.0644 -0.342284 38.1056 14.0644 -0.342284
257 2 40.1151 14.0413 1.1882 40.1151 14.0413 1.1882
258 2 39.9458 14.2496 -2.07363 39.9458 14.2496 -2.07363
259 1 40.8814 12.1848 -0.517519 40.8814 12.1848 -0.517519
260 2 42.7091 12.0711 1.20668 42.7091 12.0711 1.20668
261 2 42.9336 12.1316 -1.95524 42.9336 12.1316 -1.95524
262 1 43.7262 14.0116 -0.425581 43.7262 14.0116 -0.425581
263 2 45.7148 14.0811 1.27095 45.7148 14.0811 1.27095
264 2 45.7435 13.8192 -2.03335 45.7435 13.8192 -2.03335
265 1 46.5798 12.0724 -0.183729 46.5798 12.0724 -0.183729
266 2 48.6553 12.1019 1.26781 48.6553 12.1019 1.26781
267 2 48.4817 12.0629 -1.93447 48.4817 12.0629 -1.93447
268 1 49.5215 14.1032 -0.533649 49.5215 14.1032 -0.533649
269 2 51.5935 13.9649 1.03099 51.5935 13.9649 1.03099
270 2 51.3978 13.9808 -2.19514 51.3978 13.9808 -2.19514
271 1 0.963345 15.8473 -0.611738 0.963345 15.8473 -0.611738
272 2 2.8734 15.9981 1.0648 2.8734 15.9981 1.0648
273 2 2.93821 15.7372 -2.04151 2.93821 15.7372 -2.04151
274 1 3.78128 17.8109 -0.610454 3.78128 17.8109 -0.610454
275 2 5.70983 17.8669 1.02338 5.70983 17.8669 1.02338
276 2 5.95288 17.5624 -1.88785 5.95288 17.5624 -1.88785
277 1 6.65215 15.7297 -0.24426 6.65215 15.7297 -0.24426
278 2 8.51008 15.9225 1.41519 8.51008 15.9225 1.41519
279 2 8.73991 15.6915 -1.73402 8.73991 15.6915 -1.73402
280 1 9.58603 17.8271 -0.159247 9.58603 17.8271 -0.159247
281 2 11.6017 17.9285 1.37408 11.6017 17.9285 1.37408
282 2 11.416 17.8424 -1.84993 11.416 17.8424 -1.84993
283 1 12.4239 15.8847 -0.238647 12.4239 15.8847 -0.238647
284 2 14.3331 15.9023 1.2557 14.3331 15.9023 1.2557
285 2 14.3544 15.9373 -1.89559 14.3544 15.9373 -1.89559
286 1 15.2571 17.9324 -0.191173 15.2571 17.9324 -0.191173
287 2 17.4061 18.1432 1.28735 17.4061 18.1432 1.28735
288 2 17.176 17.7849 -1.88785 17.176 17.7849 -1.88785
289 1 18.2052 16.0042 -0.198988 18.2052 16.0042 -0.198988
290 2 20.3003 15.978 1.40786 20.3003 15.978 1.40786
291 2 20.1434 15.9225 -1.75473 20.1434 15.9225 -1.75473
292 1 21.1165 17.8933 -0.173888 21.1165 17.8933 -0.173888
293 2 23.0266 18.0402 1.40957 23.0266 18.0402 1.40957
294 2 22.9936 17.8878 -1.82321 22.9936 17.8878 -1.82321
295 1 23.863 15.8468 -0.118712 23.863 15.8468 -0.118712
296 2 25.9617 16.0788 1.37735 25.9617 16.0788 1.37735
297 2 25.9232 15.7075 -1.77238 25.9232 15.7075 -1.77238
298 1 26.7602 17.8843 -0.396217 26.7602 17.8843 -0.396217
299 2 28.6043 18.1018 1.25885 28.6043 18.1018 1.25885
300 2 28.8812 17.9451 -1.89846 28.8812 17.9451 -1.89846
301 1 29.5908 15.9672 -0.131239 29.5908 15.9672 -0.131239
302 2 31.596 15.927 1.37964 31.596 15.927 1.37964
303 2 31.4774 15.9955 -1.72587 31.4774 15.9955 -1.72587
304 1 32.406 17.8595 -0.149101 32.406 17.8595 -0.149101
305 2 34.3316 17.9999 1.49794 34.3316 17.9999 1.49794
306 2 34.3618 17.9338 -1.80094 34.3618 17.9338 -1.80094
307 1 35.1683 16.0749 -0.150305 35.1683 16.0749 -0.150305
308 2 37.2299 16.1075 1.3404 37.2299 16.1075 1.3404
309 2 37.2176 15.9871 -1.9105 37.2176 15.9871 -1.9105
310 1 37.986 18.0159 -0.309744 37.986 18.0159 -0.309744
311 2 40.0732 17.9813 1.22973 40.0732 17.9813 1.22973
312 2 39.8442 18.0172 -1.99129 39.8442 18.0172 -1.99129
313 1 40.934 16.0354 -0.424278 40.934 16.0354 -0.424278
314 2 42.8514 15.8865 1.22274 42.8514 15.8865 1.22274
315 2 43.0113 16.0582 -1.90543 43.0113 16.0582 -1.90543
316 1 43.8359 17.9042 -0.259648 43.8359 17.9042 -0.259648
317 2 45.6872 17.9256 1.19124 45.6872 17.9256 1.19124
318 2 45.724 17.8969 -2.08521 45.724 17.8969 -2.08521
319 1 46.602 15.9664 -0.482391 46.602 15.9664 -0.482391
320 2 48.4836 16.0433 1.15208 48.4836 16.0433 1.15208
321 2 48.6458 16.049 -2.07469 48.6458 16.049 -2.07469
322 1 49.5261 17.9347 -0.354868 49.5261 17.9347 -0.354868
323 2 51.6657 18.0134 0.983348 51.6657 18.0134 0.983348
324 2 51.3741 17.8305 -2.05489 51.3741 17.8305 -2.05489
325 1 0.971915 19.8198 -0.717824 0.971915 19.8198 -0.717824
326 2 2.75102 19.6131 1.02481 2.75102 19.6131 1.02481
327 2 3.04396 19.9264 -2.12562 3.04396 19.9264 -2.12562
328 1 3.878 21.6693 -0.38833 3.878 21.6693 -0.38833
329 2 5.99968 21.5391 1.11462 5.99968 21.5391 1.11462
330 2 5.77927 21.695 -2.0623 5.77927 21.695 -2.0623
331 1 6.74544 19.6709 -0.512133 6.74544 19.6709 -0.512133
332 2 8.50825 19.8499 1.3009 8.50825 19.8499 1.3009
333 2 8.79019 19.5657 -1.95909 8.79019 19.5657 -1.95909
334 1 9.58014 21.8344 -0.420951 9.58014 21.8344 -0.420951
335 2 11.4708 21.8082 1.19315 11.4708 21.8082 1.19315
336 2 11.6208 21.8232 -1.99802 11.6208 21.8232 -1.99802
337 1 12.408 19.8013 -0.43332 12.408 19.8013 -0.43332
338 2 14.2179 19.9703 1.30226 14.2179 19.9703 1.30226
339 2 14.4919 19.8618 -1.89301 14.4919 19.8618 -1.89301
340 1 15.2358 21.8259 -0.334937 15.2358 21.8259 -0.334937
341 2 17.4175 21.7592 1.08456 17.4175 21.7592 1.08456
342 2 17.0773 21.9089 -1.94278 17.0773 21.9089 -1.94278
343 1 18.0845 19.9193 -0.521806 18.0845 19.9193 -0.521806
344 2 19.9462 19.8866 1.34024 19.9462 19.8866 1.34024
345 2 20.2304 19.8415 -1.82338 20.2304 19.8415 -1.82338
346 1 20.9619 21.8527 -0.119042 20.9619 21.8527 -0.119042
347 2 23.1653 22.0266 1.25167 23.1653 22.0266 1.25167
348 2 22.7701 21.865 -1.88661 22.7701 21.865 -1.88661
349 1 23.9904 19.8587 -0.321577 23.9904 19.8587 -0.321577
350 2 25.9297 19.8839 1.34281 25.9297 19.8839 1.34281
351 2 26.0027 19.8014 -1.96679 26.0027 19.8014 -1.96679
352 1 26.8141 21.8151 -0.30774 26.8141 21.8151 -0.30774
353 2 28.7057 21.6068 1.33213 28.7057 21.6068 1.33213
354 2 28.779 21.9363 -1.93724 28.779 21.9363 -1.93724
355 1 29.6248 19.8392 -0.399548 29.6248 19.8392 -0.399548
356 2 31.45 19.9325 1.34528 31.45 19.9325 1.34528
357 2 31.6968 19.7888 -1.91032 31.6968 19.7888 -1.91032
358 1 32.4451 21.8236 -0.196457 32.4451 21.8236 -0.196457
359 2 34.332 21.7154 1.46182 34.332 21.7154 1.46182
360 2 34.4634 21.9092 -1.73431 34.4634 21.9092 -1.73431
361 1 35.1666 19.8615 -0.226181 35.1666 19.8615 -0.226181
362 2 37.2055 19.7709 1.28622 37.2055 19.7709 1.28622
363 2 37.0595 20.0876 -1.89566 37.0595 20.0876 -1.89566
364 1 38.0688 21.9011 -0.3698 38.0688 21.9011 -0.3698
365 2 39.9327 21.8437 1.28952 39.9327 21.8437 1.28952
366 2 40.0763 21.9205 -1.89646 40.0763 21.9205 -1.89646
367 1 40.8941 20.0323 -0.334491 40.8941 20.0323 -0.334491
368 2 42.8788 19.8998 1.32818 42.8788 19.8998 1.32818
369 2 42.9143 19.9066 -1.80742 42.9143 19.9066 -1.80742
370 1 43.8484 21.8187 -0.144515 43.8484 21.8187 -0.144515
371 2 45.9836 21.9032 1.26064 45.9836 21.9032 1.26064
372 2 45.5059 21.8497 -1.96004 45.5059 21.8497 -1.96004
373 1 46.599 19.9119 -0.514966 46.599 19.9119 -0.514966
374 2 48.5806 19.9316 1.0673 48.5806 19.9316 1.0673
375 2 48.6645 19.8115 -2.07128 48.6645 19.8115 -2.07128
376 1 49.5341 21.758 -0.413752 49.5341 21.758 -0.413752
377 2 51.5507 21.3948 1.06237 51.5507 21.3948 1.06237
378 2 51.3068 21.9308 -2.05998 51.3068 21.9308 -2.05998
379 1 1.08681 23.6855 -0.363522 1.08681 23.6855 -0.363522
380 2 3.04831 23.7551 1.21397 3.04831 23.7551 1.21397
381 2 3.02922 23.8004 -1.91442 3.02922 23.8004 -1.91442
382 1 3.8386 25.754 -0.408718 3.8386 25.754 -0.408718
383 2 5.76184 25.6745 1.23652 5.76184 25.6745 1.23652
384 2 5.65769 25.7436 -2.0399 5.65769 25.7436 -2.0399
385 1 6.7563 23.7621 -0.465533 6.7563 23.7621 -0.465533
386 2 8.80615 23.7066 1.18916 8.80615 23.7066 1.18916
387 2 8.69886 23.8892 -2.13251 8.69886 23.8892 -2.13251
388 1 9.55841 25.8287 -0.340553 9.55841 25.8287 -0.340553
389 2 11.5753 25.7919 1.31145 11.5753 25.7919 1.31145
390 2 11.4837 25.9539 -1.95037 11.4837 25.9539 -1.95037
391 1 12.4159 23.7752 -0.374479 12.4159 23.7752 -0.374479
392 2 14.369 23.9894 1.1031 14.369 23.9894 1.1031
393 2 14.3845 23.6483 -2.06223 14.3845 23.6483 -2.06223
394 1 15.2107 25.8833 -0.650487 15.2107 25.8833 -0.650487
395 2 16.985 25.6725 1.09135 16.985 25.6725 1.09135
396 2 17.3187 25.7545 -2.10803 17.3187 25.7545 -2.10803
397 1 18.1123 23.8279 -0.395089 18.1123 23.8279 -0.395089
398 2 20.045 23.7698 1.27863 20.045 23.7698 1.27863
399 2 20.0642 23.6792 -1.92289 20.0642 23.6792 -1.92289
400 1 20.9728 25.5356 -0.435048 20.9728 25.5356 -0.435048
401 2 22.9669 25.4751 1.25805 22.9669 25.4751 1.25805
402 2 23.0446 25.6978 -1.95389 23.0446 25.6978 -1.95389
403 1 23.8944 23.7285 -0.501828 23.8944 23.7285 -0.501828
404 2 25.7575 23.7289 1.34132 25.7575 23.7289 1.34132
405 2 26.0205 23.929 -1.86805 26.0205 23.929 -1.86805
406 1 26.6998 25.7545 -0.100803 26.6998 25.7545 -0.100803
407 2 28.6459 25.6043 1.55926 28.6459 25.6043 1.55926
408 2 28.8762 25.6995 -1.649 28.8762 25.6995 -1.649
409 1 29.5994 23.682 -0.0541127 29.5994 23.682 -0.0541127
410 2 31.5258 23.7383 1.51332 31.5258 23.7383 1.51332
411 2 31.5315 23.7898 -1.72758 31.5315 23.7898 -1.72758
412 1 32.4043 25.7662 -0.0509573 32.4043 25.7662 -0.0509573
413 2 34.5682 25.9695 1.44483 34.5682 25.9695 1.44483
414 2 34.389 25.7383 -1.75363 34.389 25.7383 -1.75363
415 1 35.2514 23.8013 -0.199818 35.2514 23.8013 -0.199818
416 2 37.2339 23.6537 1.36303 37.2339 23.6537 1.36303
417 2 37.254 23.9473 -1.81272 37.254 23.9473 -1.81272
418 1 38.137 25.7778 0.0402048 38.137 25.7778 0.0402048
419 2 40.2886 25.871 1.50247 40.2886 25.871 1.50247
420 2 39.9471 25.7496 -1.69036 39.9471 25.7496 -1.69036
421 1 40.9551 23.8691 -0.197582 40.9551 23.8691 -0.197582
422 2 42.9475 23.691 1.37282 42.9475 23.691 1.37282
423 2 43.0121 23.776 -1.84563 43.0121 23.776 -1.84563
424 1 43.8317 25.837 -0.242941 43.8317 25.837 -0.242941
425 2 45.9378 25.7329 1.26999 45.9378 25.7329 1.26999
426 2 45.7143 25.7747 -1.93425 45.7143 25.7747 -1.93425
427 1 46.5898 23.7977 -0.347855 46.5898 23.7977 -0.347855
428 2 48.4629 23.6368 1.16957 48.4629 23.6368 1.16957
429 2 48.8056 23.8955 -1.88548 48.8056 23.8955 -1.88548
430 1 49.5508 25.6831 -0.193997 49.5508 25.6831 -0.193997
431 2 51.5224 25.4634 1.33563 51.5224 25.4634 1.33563
432 2 51.4219 25.8192 -1.89692 51.4219 25.8192 -1.89692
433 1 0.982799 27.6848 -0.146184 0.982799 27.6848 -0.146184
434 2 3.01259 27.5611 1.39515 3.01259 27.5611 1.39515
435 2 2.83176 27.8722 -1.88971 2.83176 27.8722 -1.88971
436 1 3.82376 29.6335 -0.237723 3.82376 29.6335 -0.237723
437 2 5.812 29.7662 1.23387 5.812 29.7662 1.23387
438 2 5.57626 29.5741 -1.92069 5.57626 29.5741 -1.92069
439 1 6.66218 27.741 -0.342127 6.66218 27.741 -0.342127
440 2 8.59018 27.7131 1.31114 8.59018 27.7131 1.31114
441 2 8.61634 27.8857 -1.97031 8.61634 27.8857 -1.97031
442 1 9.42957 29.7503 -0.346558 9.42957 29.7503 -0.346558
443 2 11.4621 29.8197 1.25273 11.4621 29.8197 1.25273
444 2 11.4913 29.6093 -1.91854 11.4913 29.6093 -1.91854
445 1 12.2872 27.8191 -0.326971 12.2872 27.8191 -0.326971
446 2 14.4987 27.6468 1.17657 14.4987 27.6468 1.17657
447 2 14.2076 27.8104 -2.07776 14.2076 27.8104 -2.07776
448 1 15.1772 29.6973 -0.456588 15.1772 29.6973 -0.456588
449 2 17.1918 29.5779 1.10901 17.1918 29.5779 1.10901
450 2 17.2414 29.6836 -2.02995 17.2414 29.6836 -2.02995
451 1 18.0589 27.6254 -0.35742 18.0589 27.6254 -0.35742
452 2 20.16 27.4228 1.27641 20.16 27.4228 1.27641
453 2 20.1629 27.7572 -1.90286 20.1629 27.7572 -1.90286
454 1 21.0409 29.5916 -0.166545 21.0409 29.5916 -0.166545
455 2 23.1128 29.5256 1.40999 23.1128 29.5256 1.40999
456 2 23.0029 29.5203 -1.76378 23.0029 29.5203 -1.76378
457 1 23.8042 27.6426 -0.190032 23.8042 27.6426 -0.190032
458 2 25.815 27.6158 1.51175 25.815 27.6158 1.51175
459 2 25.7298 27.6355 -1.73977 25.7298 27.6355 -1.73977
460 1 26.6594 29.5826 0.000612321 26.6594 29.5826 0.000612321
461 2 28.6928 29.7385 1.5344 28.6928 29.7385 1.5344
462 2 28.6208 29.5846 -1.69705 28.6208 29.5846 -1.69705
463 1 29.5263 27.6767 -0.00522084 29.5263 27.6767 -0.00522084
464 2 31.5328 27.6701 1.52034 31.5328 27.6701 1.52034
465 2 31.3528 27.5572 -1.67412 31.3528 27.5572 -1.67412
466 1 32.4231 29.6212 -0.0586322 32.4231 29.6212 -0.0586322
467 2 34.3949 29.5397 1.41418 34.3949 29.5397 1.41418
468 2 34.2351 29.6492 -1.76469 34.2351 29.6492 -1.76469
469 1 35.2661 27.7599 -0.254484 35.2661 27.7599 -0.254484
470 2 37.144 27.9859 1.40943 37.144 27.9859 1.40943
471 2 37.295 27.5749 -1.79318 37.295 27.5749 -1.79318
472 1 38.0719 29.7583 -0.23765 38.0719 29.7583 -0.23765
473 2 39.9689 29.8048 1.43159 39.9689 29.8048 1.43159
474 2 40.1074 29.7046 -1.81171 40.1074 29.7046 -1.81171
475 1 40.9546 27.8396 -0.170721 40.9546 27.8396 -0.170721
476 2 43.0064 27.8128 1.37941 43.0064 27.8128 1.37941
477 2 42.8914 27.7316 -1.82483 42.8914 27.7316 -1.82483
478 1 43.736 29.7022 -0.278987 43.736 29.7022 -0.278987
479 2 45.7558 29.7456 1.42158 45.7558 29.7456 1.42158
480 2 45.7126 29.6224 -1.96953 45.7126 29.6224 -1.96953
481 1 46.7264 27.7583 -0.245907 46.7264 27.7583 -0.245907
482 2 48.7374 27.6974 1.33984 48.7374 27.6974 1.33984
483 2 48.6965 27.6166 -1.86519 48.6965 27.6166 -1.86519
484 1 49.5547 29.6904 -0.369631 49.5547 29.6904 -0.369631
485 2 51.3375 29.6636 1.41514 51.3375 29.6636 1.41514
486 2 51.6121 29.6131 -1.74354 51.6121 29.6131 -1.74354
487 1 1.00059 31.5799 -0.0374696 1.00059 31.5799 -0.0374696
488 2 2.97233 31.4178 1.43051 2.97233 31.4178 1.43051
489 2 2.82448 31.916 -1.6134 2.82448 31.916 -1.6134
490 1 3.76269 33.5139 0.148399 3.76269 33.5139 0.148399
491 2 5.94393 33.6171 1.40917 5.94393 33.6171 1.40917
492 2 5.46186 33.7021 -1.74809 5.46186 33.7021 -1.74809
493 1 6.65993 31.7185 -0.415827 6.65993 31.7185 -0.415827
494 2 8.38865 31.7411 1.26703 8.38865 31.7411 1.26703
495 2 8.71512 31.7091 -1.95236 8.71512 31.7091 -1.95236
496 1 9.46485 33.6209 -0.344357 9.46485 33.6209 -0.344357
497 2 11.5211 33.6519 1.02991 11.5211 33.6519 1.02991
498 2 11.2735 33.6197 -2.05676 11.2735 33.6197 -2.05676
499 1 12.2889 31.694 -0.533905 12.2889 31.694 -0.533905
500 2 14.1884 31.5858 1.1618 14.1884 31.5858 1.1618
501 2 14.3842 31.7775 -2.02246 14.3842 31.7775 -2.02246
502 1 15.2101 33.5187 -0.287555 15.2101 33.5187 -0.287555
503 2 17.2714 33.5693 1.23466 17.2714 33.5693 1.23466
504 2 17.1434 33.8165 -1.9315 17.1434 33.8165 -1.9315
505 1 18.1548 31.6614 -0.365229 18.1548 31.6614 -0.365229
506 2 19.7887 31.5037 1.41856 19.7887 31.5037 1.41856
507 2 20.3172 31.5529 -1.83962 20.3172 31.5529 -1.83962
508 1 21.0354 33.5413 -0.124776 21.0354 33.5413 -0.124776
509 2 22.9996 33.396 1.58158 22.9996 33.396 1.58158
510 2 23.1104 33.8227 -1.63568 23.1104 33.8227 -1.63568
511 1 23.8828 31.6473 -0.20431 23.8828 31.6473 -0.20431
512 2 25.7072 31.6276 1.57086 25.7072 31.6276 1.57086
513 2 25.8051 31.7901 -1.60486 25.8051 31.7901 -1.60486
514 1 26.7625 33.5507 0.0596829 26.7625 33.5507 0.0596829
515 2 28.8202 33.6022 1.53917 28.8202 33.6022 1.53917
516 2 28.63 33.5414 -1.75284 28.63 33.5414 -1.75284
517 1 29.6319 31.5657 -0.105758 29.6319 31.5657 -0.105758
518 2 31.5107 31.5426 1.48238 31.5107 31.5426 1.48238
519 2 31.4757 31.3985 -1.73517 31.4757 31.3985 -1.73517
520 1 32.3192 33.5384 -0.160267 32.3192 33.5384 -0.160267
521 2 34.3131 33.5274 1.39432 34.3131 33.5274 1.39432
522 2 34.124 33.4922 -1.82059 34.124 33.4922 -1.82059
523 1 35.2056 31.5493 -0.309699 35.2056 31.5493 -0.309699
524 2 37.1169 31.7606 1.30282 37.1169 31.7606 1.30282
525 2 36.8761 31.6166 -1.93891 36.8761 31.6166 -1.93891
526 1 37.9427 33.6588 -0.292485 37.9427 33.6588 -0.292485
527 2 39.9332 33.771 1.35222 39.9332 33.771 1.35222
528 2 40.0531 33.5731 -1.87826 40.0531 33.5731 -1.87826
529 1 40.8955 31.7608 -0.143679 40.8955 31.7608 -0.143679
530 2 42.993 31.5789 1.45439 42.993 31.5789 1.45439
531 2 42.7633 31.8323 -1.77892 42.7633 31.8323 -1.77892
532 1 43.7936 33.6048 -0.215139 43.7936 33.6048 -0.215139
533 2 45.5752 33.6392 1.44143 45.5752 33.6392 1.44143
534 2 45.7069 33.6429 -1.77627 45.7069 33.6429 -1.77627