ITEM: TIMESTEP
467000
ITEM: NUMBER OF ATOMS
810
ITEM: BOX BOUNDS pp pp pp
8.0341777045796159e-01 5.2214187229542503e+01
-3.4777681933740723e-01 5.1363991819336277e+01
-1.0000000000000000e+01 1.0000000000000000e+01
ITEM: ATOMS id type x y z xu yu zu
1 1 1.03066 -0.155902 -0.254246 1.03066 -0.155902 -0.254246
2 2 3.12853 0.0964952 1.22492 3.12853 0.0964952 1.22492
3 2 2.87567 -0.217138 -2.00836 2.87567 -0.217138 -2.00836
4 1 3.82892 1.63407 -0.585528 3.82892 1.63407 -0.585528
5 2 5.55821 1.67001 1.19809 5.55821 1.67001 1.19809
6 2 5.93619 1.59903 -2.07918 5.93619 1.59903 -2.07918
7 1 6.78838 -0.138355 -0.245397 6.78838 -0.138355 -0.245397
8 2 8.62098 -0.0258431 1.43895 8.62098 -0.0258431 1.43895
9 2 8.71276 -0.241535 -1.78589 8.71276 -0.241535 -1.78589
10 1 9.6047 1.60508 -0.177544 9.6047 1.60508 -0.177544
11 2 11.6131 1.73741 1.41192 11.6131 1.73741 1.41192
12 2 11.5529 1.48796 -1.82529 11.5529 1.48796 -1.82529
13 1 12.4488 -0.113542 -0.0398024 12.4488 -0.113542 -0.0398024
14 2 14.4275 -0.150278 1.35895 14.4275 -0.150278 1.35895
15 2 14.1502 -0.0852524 -1.74452 14.1502 -0.0852524 -1.74452
16 1 15.3388 1.65241 -0.258654 15.3388 1.65241 -0.258654
17 2 17.3264 1.57287 1.24503 17.3264 1.57287 1.24503
18 2 17.1097 1.49009 -2.02903 17.1097 1.49009 -2.02903
19 1 18.185 -0.126422 -0.319811 18.185 -0.126422 -0.319811
20 2 20.2133 -0.0210805 1.1128 20.2133 -0.0210805 1.1128
21 2 19.8984 -0.317344 -2.05018 19.8984 -0.317344 -2.05018
22 1 20.9972 1.57618 -0.65882 20.9972 1.57618 -0.65882
23 2 22.95 1.53835 1.03116 22.95 1.53835 1.03116
24 2 22.973 1.53607 -2.23946 22.973 1.53607 -2.23946
25 1 23.8938 -0.104216 -0.558032 23.8938 -0.104216 -0.558032
26 2 25.8432 -0.0650023 0.940152 25.8432 -0.0650023 0.940152
27 2 25.6235 -0.177646 -2.28417 25.6235 -0.177646 -2.28417
28 1 26.6542 1.60634 -0.801516 26.6542 1.60634 -0.801516
29 2 28.4674 1.33027 0.934516 28.4674 1.33027 0.934516
30 2 28.6426 1.55534 -2.31476 28.6426 1.55534 -2.31476
31 1 29.5437 -0.218308 -0.74275 29.5437 -0.218308 -0.74275
32 2 31.2617 -0.0976715 1.15539 31.2617 -0.0976715 1.15539
33 2 31.6131 -0.239317 -2.1821 31.6131 -0.239317 -2.1821
34 1 32.4297 1.52635 -0.532354 32.4297 1.52635 -0.532354
35 2 34.1288 1.41389 1.2605 34.1288 1.41389 1.2605
36 2 34.543 1.60337 -1.93166 34.543 1.60337 -1.93166
37 1 35.2286 -0.271913 -0.351601 35.2286 -0.271913 -0.351601
38 2 36.9154 0.00119265 1.46664 36.9154 0.00119265 1.46664
39 2 37.2826 -0.236756 -1.78511 37.2826 -0.236756 -1.78511
40 1 37.977 1.57327 -0.27827 37.977 1.57327 -0.27827
41 2 39.8559 1.64853 1.28868 39.8559 1.64853 1.28868
42 2 39.9394 1.60311 -1.87599 39.9394 1.60311 -1.87599
43 1 40.8837 -0.106774 -0.234782 40.8837 -0.106774 -0.234782
44 2 42.4907 0.0504963 1.60438 42.4907 0.0504963 1.60438
45 2 43.1277 -0.136825 -1.59635 43.1277 -0.136825 -1.59635
46 1 43.7708 1.68427 0.085768 43.7708 1.68427 0.085768
47 2 45.6607 1.51766 1.7415 45.6607 1.51766 1.7415
48 2 45.8309 1.69512 -1.51318 45.8309 1.69512 -1.51318
49 1 46.6118 -0.125179 0.0183659 46.6118 -0.125179 0.0183659
50 2 48.6454 -0.127225 1.61367 48.6454 -0.127225 1.61367
51 2 48.5325 -0.229375 -1.61575 48.5325 -0.229375 -1.61575
52 1 49.5291 1.52153 -0.0812744 49.5291 1.52153 -0.0812744
53 2 51.5573 1.59748 1.46079 51.5573 1.59748 1.46079
54 2 51.4264 1.53359 -1.78448 51.4264 1.53359 -1.78448
55 1 0.988317 3.37625 -0.279016 0.988317 3.37625 -0.279016
56 2 3.0045 3.19341 1.22074 3.0045 3.19341 1.22074
57 2 2.78875 3.59105 -1.98338 2.78875 3.59105 -1.98338
58 1 3.94307 5.08439 -0.283436 3.94307 5.08439 -0.283436
59 2 5.96774 5.00139 1.33605 5.96774 5.00139 1.33605
60 2 5.73272 5.17253 -1.98589 5.73272 5.17253 -1.98589
61 1 6.70344 3.37664 -0.37485 6.70344 3.37664 -0.37485
62 2 8.60342 3.40443 1.40839 8.60342 3.40443 1.40839
63 2 8.77454 3.26097 -1.83663 8.77454 3.26097 -1.83663
64 1 9.54819 5.15052 -0.228576 9.54819 5.15052 -0.228576
65 2 11.7017 5.30891 1.25665 11.7017 5.30891 1.25665
66 2 11.3467 4.94132 -1.91714 11.3467 4.94132 -1.91714
67 1 12.4594 3.34089 -0.284835 12.4594 3.34089 -0.284835
68 2 14.3103 3.3933 1.38213 14.3103 3.3933 1.38213
69 2 14.4021 3.40573 -1.89594 14.4021 3.40573 -1.89594
70 1 15.3759 5.14465 -0.333831 15.3759 5.14465 -0.333831
71 2 17.2893 5.40603 1.06936 17.2893 5.40603 1.06936
72 2 17.1721 4.82532 -2.08015 17.1721 4.82532 -2.08015
73 1 18.2134 3.40204 -0.417569 18.2134 3.40204 -0.417569
74 2 20.2833 3.43884 1.0321 20.2833 3.43884 1.0321
75 2 19.9712 3.29827 -2.21254 19.9712 3.29827 -2.21254
76 1 21.0735 5.05695 -0.800664 21.0735 5.05695 -0.800664
77 2 22.9036 5.25331 0.890321 22.9036 5.25331 0.890321
78 2 22.8771 4.81786 -2.3952 22.8771 4.81786 -2.3952
79 1 23.8942 3.38379 -0.601384 23.8942 3.38379 -0.601384
80 2 25.8756 3.45152 0.793509 25.8756 3.45152 0.793509
81 2 25.5912 3.33 -2.41662 25.5912 3.33 -2.41662
82 1 26.6588 5.05171 -0.938533 26.6588 5.05171 -0.938533
83 2 28.5169 5.13284 0.809279 28.5169 5.13284 0.809279
84 2 28.8882 4.88975 -2.38562 28.8882 4.88975 -2.38562
85 1 29.5972 3.23843 -0.538577 29.5972 3.23843 -0.538577
86 2 31.3828 3.14362 1.29483 31.3828 3.14362 1.29483
87 2 31.7279 3.42826 -2.06239 31.7279 3.42826 -2.06239
88 1 32.3379 4.94085 -0.252835 32.3379 4.94085 -0.252835
89 2 34.1673 5.02665 1.41524 34.1673 5.02665 1.41524
90 2 34.2913 5.00108 -1.86969 34.2913 5.00108 -1.86969
91 1 35.2044 3.30703 -0.191156 35.2044 3.30703 -0.191156
92 2 37.2357 3.42096 1.33676 37.2357 3.42096 1.33676
93 2 37.0479 3.29109 -1.89042 37.0479 3.29109 -1.89042
94 1 38.0014 5.00957 -0.425034 38.0014 5.00957 -0.425034
95 2 39.9228 5.258 1.24125 39.9228 5.258 1.24125
96 2 40.0201 5.19075 -2.01706 40.0201 5.19075 -2.01706
97 1 40.9145 3.40911 -0.256473 40.9145 3.40911 -0.256473
98 2 42.7501 3.42232 1.50043 42.7501 3.42232 1.50043
99 2 43.0043 3.41222 -1.6332 43.0043 3.41222 -1.6332
100 1 43.8456 5.08984 0.0492301 43.8456 5.08984 0.0492301
101 2 45.7761 5.15201 1.71702 45.7761 5.15201 1.71702
102 2 45.7819 4.89838 -1.55695 45.7819 4.89838 -1.55695
103 1 46.7604 3.38343 0.142306 46.7604 3.38343 0.142306
104 2 48.8047 3.33326 1.6424 48.8047 3.33326 1.6424
105 2 48.5798 3.33874 -1.60038 48.5798 3.33874 -1.60038
106 1 49.6113 4.97222 -0.0200622 49.6113 4.97222 -0.0200622
107 2 51.6745 5.02873 1.44154 51.6745 5.02873 1.44154
108 2 51.3279 5.05305 -1.72348 51.3279 5.05305 -1.72348
109 1 1.04288 6.81353 -0.208645 1.04288 6.81353 -0.208645
110 2 3.02928 6.86222 1.36711 3.02928 6.86222 1.36711
111 2 2.9677 6.8179 -1.81916 2.9677 6.8179 -1.81916
112 1 3.91703 8.60252 -0.262995 3.91703 8.60252 -0.262995
113 2 6.00337 8.73316 1.30426 6.00337 8.73316 1.30426
114 2 5.61869 8.38527 -2.05522 5.61869 8.38527 -2.05522
115 1 6.78483 6.87328 -0.376702 6.78483 6.87328 -0.376702
116 2 8.7053 6.98277 1.25255 8.7053 6.98277 1.25255
117 2 8.56908 6.74964 -2.06043 8.56908 6.74964 -2.06043
118 1 9.64712 8.53553 -0.600551 9.64712 8.53553 -0.600551
119 2 11.6889 8.50387 1.02528 11.6889 8.50387 1.02528
120 2 11.5569 8.47401 -2.26796 11.5569 8.47401 -2.26796
121 1 12.526 6.8316 -0.551984 12.526 6.8316 -0.551984
122 2 14.4398 7.03369 1.14226 14.4398 7.03369 1.14226
123 2 14.5038 6.68236 -2.14352 14.5038 6.68236 -2.14352
124 1 15.3529 8.51862 -0.596931 15.3529 8.51862 -0.596931
125 2 17.4252 8.46426 0.874801 17.4252 8.46426 0.874801
126 2 17.1971 8.49662 -2.42763 17.1971 8.49662 -2.42763
127 1 18.2048 6.76058 -0.82705 18.2048 6.76058 -0.82705
128 2 20.1249 6.74532 0.768624 20.1249 6.74532 0.768624
129 2 19.9913 6.6422 -2.45382 19.9913 6.6422 -2.45382
130 1 21.0965 8.5437 -0.941844 21.0965 8.5437 -0.941844
131 2 22.8785 8.402 0.828273 22.8785 8.402 0.828273
132 2 23.0765 8.61971 -2.39829 23.0765 8.61971 -2.39829
133 1 23.9057 6.75842 -1.04166 23.9057 6.75842 -1.04166
134 2 25.6344 6.70362 0.716712 25.6344 6.70362 0.716712
135 2 25.7071 6.83491 -2.56325 25.7071 6.83491 -2.56325
136 1 26.7251 8.45607 -0.797592 26.7251 8.45607 -0.797592
137 2 28.5648 8.36985 0.925653 28.5648 8.36985 0.925653
138 2 28.6057 8.58715 -2.36724 28.6057 8.58715 -2.36724
139 1 29.5842 6.75629 -0.763228 29.5842 6.75629 -0.763228
140 2 31.261 6.81617 1.15584 31.261 6.81617 1.15584
141 2 31.7617 6.48886 -2.06196 31.7617 6.48886 -2.06196
142 1 32.4781 8.55529 -0.374071 32.4781 8.55529 -0.374071
143 2 34.4176 8.49321 1.35839 34.4176 8.49321 1.35839
144 2 34.427 8.62417 -1.95478 34.427 8.62417 -1.95478
145 1 35.1504 6.78148 -0.272982 35.1504 6.78148 -0.272982
146 2 37.2494 6.81281 1.26321 37.2494 6.81281 1.26321
147 2 37.0742 6.83419 -2.012 37.0742 6.83419 -2.012
148 1 38.0883 8.55347 -0.354736 38.0883 8.55347 -0.354736
149 2 39.926 8.54019 1.37312 39.926 8.54019 1.37312
150 2 40.1902 8.68178 -1.92085 40.1902 8.68178 -1.92085
151 1 40.9312 6.92025 -0.357378 40.9312 6.92025 -0.357378
152 2 42.6159 6.92288 1.44625 42.6159 6.92288 1.44625
153 2 43.1219 6.68628 -1.75345 43.1219 6.68628 -1.75345
154 1 43.8302 8.50957 -0.0461017 43.8302 8.50957 -0.0461017
155 2 45.5565 8.4006 1.70528 45.5565 8.4006 1.70528
156 2 45.9371 8.73581 -1.54434 45.9371 8.73581 -1.54434
157 1 46.7974 6.7648 -0.00705987 46.7974 6.7648 -0.00705987
158 2 48.736 6.69804 1.66173 48.736 6.69804 1.66173
159 2 48.626 6.73287 -1.62889 48.626 6.73287 -1.62889
160 1 49.5735 8.44132 -0.0554356 49.5735 8.44132 -0.0554356
161 2 51.5098 8.37442 1.54137 51.5098 8.37442 1.54137
162 2 51.4506 8.66496 -1.73437 51.4506 8.66496 -1.73437
163 1 1.03222 10.2216 0.0123996 1.03222 10.2216 0.0123996
164 2 3.0886 10.2614 1.47199 3.0886 10.2614 1.47199
165 2 2.848 10.2798 -1.75219 2.848 10.2798 -1.75219
166 1 3.86649 11.9794 -0.175737 3.86649 11.9794 -0.175737
167 2 6.03482 11.8601 1.12806 6.03482 11.8601 1.12806
168 2 5.59823 11.9671 -2.08256 5.59823 11.9671 -2.08256
169 1 6.78652 10.2171 -0.63864 6.78652 10.2171 -0.63864
170 2 8.7542 10.3302 1.03672 8.7542 10.3302 1.03672
171 2 8.65883 10.1348 -2.21448 8.65883 10.1348 -2.21448
172 1 9.64606 11.9626 -0.728449 9.64606 11.9626 -0.728449
173 2 11.4647 11.9897 0.855243 11.4647 11.9897 0.855243
174 2 11.5185 11.7913 -2.39344 11.5185 11.7913 -2.39344
175 1 12.4809 10.1721 -0.638634 12.4809 10.1721 -0.638634
176 2 14.4547 10.3644 0.893813 14.4547 10.3644 0.893813
177 2 14.4269 10.0986 -2.27304 14.4269 10.0986 -2.27304
178 1 15.3333 11.9429 -0.763076 15.3333 11.9429 -0.763076
179 2 17.3949 12.1262 0.774777 17.3949 12.1262 0.774777
180 2 17.1832 11.9708 -2.58604 17.1832 11.9708 -2.58604
181 1 18.2261 10.2929 -0.847516 18.2261 10.2929 -0.847516
182 2 20.0636 10.1764 0.746106 20.0636 10.1764 0.746106
183 2 20.1178 10.3447 -2.38506 20.1178 10.3447 -2.38506
184 1 21.0591 12.0682 -0.67963 21.0591 12.0682 -0.67963
185 2 22.959 12.0543 0.99864 22.959 12.0543 0.99864
186 2 23.1223 12.0316 -2.27187 23.1223 12.0316 -2.27187
187 1 23.8494 10.2413 -0.590912 23.8494 10.2413 -0.590912
188 2 25.8476 10.1538 0.960028 25.8476 10.1538 0.960028
189 2 25.7397 10.2321 -2.28873 25.7397 10.2321 -2.28873
190 1 26.7474 11.89 -0.62397 26.7474 11.89 -0.62397
191 2 28.6605 11.9198 1.07674 28.6605 11.9198 1.07674
192 2 28.7557 11.9434 -2.19682 28.7557 11.9434 -2.19682
193 1 29.5794 10.1924 -0.472882 29.5794 10.1924 -0.472882
194 2 31.2453 10.0253 1.188 31.2453 10.0253 1.188
195 2 31.6642 10.2287 -1.98366 31.6642 10.2287 -1.98366
196 1 32.4591 11.9466 -0.40525 32.4591 11.9466 -0.40525
197 2 34.1965 11.9556 1.33009 34.1965 11.9556 1.33009
198 2 34.4679 12.0972 -1.88704 34.4679 12.0972 -1.88704
199 1 35.3486 10.3232 -0.252726 35.3486 10.3232 -0.252726
200 2 37.2946 10.3171 1.3469 37.2946 10.3171 1.3469
201 2 37.2027 10.2812 -1.92286 37.2027 10.2812 -1.92286
202 1 38.0951 11.9614 -0.348085 38.0951 11.9614 -0.348085
203 2 39.99 11.9122 1.44573 39.99 11.9122 1.44573
204 2 40.1332 11.9643 -1.81609 40.1332 11.9643 -1.81609
205 1 41.0483 10.25 -0.112568 41.0483 10.25 -0.112568
206 2 42.7405 10.0885 1.61953 42.7405 10.0885 1.61953
207 2 43.0845 10.3049 -1.58062 43.0845 10.3049 -1.58062
208 1 43.8981 11.9033 0.217554 43.8981 11.9033 0.217554
209 2 45.7563 12.0129 1.95518 45.7563 12.0129 1.95518
210 2 45.8376 11.8874 -1.37321 45.8376 11.8874 -1.37321
211 1 46.6791 10.2084 0.34079 46.6791 10.2084 0.34079
212 2 48.788 10.1572 1.90035 48.788 10.1572 1.90035
213 2 48.5485 10.305 -1.38741 48.5485 10.305 -1.38741
214 1 49.5205 11.941 0.309494 49.5205 11.941 0.309494
215 2 51.6423 12.1071 1.70911 51.6423 12.1071 1.70911
216 2 51.27 11.9469 -1.49456 51.27 11.9469 -1.49456
217 1 1.03643 13.6658 -0.0112353 1.03643 13.6658 -0.0112353
218 2 3.01586 13.6388 1.48261 3.01586 13.6388 1.48261
219 2 2.77476 13.6316 -1.76697 2.77476 13.6316 -1.76697
220 1 3.77015 15.3569 -0.322062 3.77015 15.3569 -0.322062
221 2 5.66489 15.1979 1.14518 5.66489 15.1979 1.14518
222 2 5.63437 15.4168 -2.07757 5.63437 15.4168 -2.07757
223 1 6.71315 13.628 -0.594398 6.71315 13.628 -0.594398
224 2 8.7462 13.6351 0.990637 8.7462 13.6351 0.990637
225 2 8.47978 13.5718 -2.3362 8.47978 13.5718 -2.3362
226 1 9.60935 15.3488 -0.738443 9.60935 15.3488 -0.738443
227 2 11.6298 15.4695 0.839597 11.6298 15.4695 0.839597
228 2 11.3473 15.395 -2.45723 11.3473 15.395 -2.45723
229 1 12.4681 13.6809 -0.873578 12.4681 13.6809 -0.873578
230 2 14.3408 13.7261 0.83153 14.3408 13.7261 0.83153
231 2 14.3957 13.5582 -2.53211 14.3957 13.5582 -2.53211
232 1 15.2495 15.4507 -0.892347 15.2495 15.4507 -0.892347
233 2 17.2369 15.4831 0.681538 17.2369 15.4831 0.681538
234 2 17.2729 15.5198 -2.5409 17.2729 15.5198 -2.5409
235 1 18.1796 13.7125 -0.967005 18.1796 13.7125 -0.967005
236 2 20.0007 13.7326 0.854071 20.0007 13.7326 0.854071
237 2 20.3051 13.8571 -2.29677 20.3051 13.8571 -2.29677
238 1 21.0627 15.4667 -0.618727 21.0627 15.4667 -0.618727
239 2 22.9448 15.4452 1.14991 22.9448 15.4452 1.14991
240 2 22.9587 15.5102 -2.21578 22.9587 15.5102 -2.21578
241 1 23.878 13.7101 -0.597803 23.878 13.7101 -0.597803
242 2 25.7617 13.6734 1.00918 25.7617 13.6734 1.00918
243 2 25.8636 13.6015 -2.14288 25.8636 13.6015 -2.14288
244 1 26.7492 15.4063 -0.528551 26.7492 15.4063 -0.528551
245 2 28.6614 15.2271 1.19714 28.6614 15.2271 1.19714
246 2 28.8031 15.6808 -1.99086 28.8031 15.6808 -1.99086
247 1 29.5986 13.7014 -0.558099 29.5986 13.7014 -0.558099
248 2 31.4543 13.6802 1.25522 31.4543 13.6802 1.25522
249 2 31.6012 13.7765 -2.09122 31.6012 13.7765 -2.09122
250 1 32.489 15.331 -0.293021 32.489 15.331 -0.293021
251 2 34.3502 15.3784 1.58185 34.3502 15.3784 1.58185
252 2 34.5084 15.4612 -1.68493 34.5084 15.4612 -1.68493
253 1 35.2964 13.65 -0.0998566 35.2964 13.65 -0.0998566
254 2 37.1312 13.5955 1.50579 37.1312 13.5955 1.50579
255 2 37.2699 13.7818 -1.7417 37.2699 13.7818 -1.7417
256 1 38.2147 15.311 0.015524 38.2147 15.311 0.015524
257 2 40.1431 15.2912 1.58517 40.1431 15.2912 1.58517
258 2 39.9499 15.3549 -1.67708 39.9499 15.3549 -1.67708
259 1 40.9774 13.6046 -0.164166 40.9774 13.6046 -0.164166
260 2 42.6591 13.5583 1.72366 42.6591 13.5583 1.72366
261 2 43.2269 13.6024 -1.47112 43.2269 13.6024 -1.47112
262 1 43.8556 15.3696 0.365734 43.8556 15.3696 0.365734
263 2 45.6719 15.5887 2.01749 45.6719 15.5887 2.01749
264 2 45.6663 15.3845 -1.31785 45.6663 15.3845 -1.31785
265 1 46.6235 13.6801 0.328729 46.6235 13.6801 0.328729
266 2 48.7441 13.7602 1.8765 48.7441 13.7602 1.8765
267 2 48.4631 13.5274 -1.42129 48.4631 13.5274 -1.42129
268 1 49.5558 15.3495 0.0265355 49.5558 15.3495 0.0265355
269 2 51.5518 15.6526 1.50795 51.5518 15.6526 1.50795
270 2 51.3095 15.1331 -1.70273 51.3095 15.1331 -1.70273
271 1 0.950922 17.1268 -0.414647 0.950922 17.1268 -0.414647
272 2 2.87766 17.132 1.30922 2.87766 17.132 1.30922
273 2 2.98152 17.1086 -1.93715 2.98152 17.1086 -1.93715
274 1 3.86929 18.8892 -0.165051 3.86929 18.8892 -0.165051
275 2 5.85656 18.7758 1.30976 5.85656 18.7758 1.30976
276 2 5.656 18.8394 -1.8744 5.656 18.8394 -1.8744
277 1 6.64572 17.0043 -0.389363 6.64572 17.0043 -0.389363
278 2 8.78029 16.8822 1.02741 8.78029 16.8822 1.02741
279 2 8.39272 17.1895 -2.16193 8.39272 17.1895 -2.16193
280 1 9.53468 18.7031 -0.569627 9.53468 18.7031 -0.569627
281 2 11.5652 18.6763 0.987421 11.5652 18.6763 0.987421
282 2 11.2663 18.937 -2.26341 11.2663 18.937 -2.26341
283 1 12.3996 17.1421 -0.896067 12.3996 17.1421 -0.896067
284 2 14.2599 17.049 0.77725 14.2599 17.049 0.77725
285 2 14.3907 17.1887 -2.46938 14.3907 17.1887 -2.46938
286 1 15.2679 18.9209 -0.765611 15.2679 18.9209 -0.765611
287 2 17.1175 18.8829 0.786379 17.1175 18.8829 0.786379
288 2 17.1765 19.0906 -2.35705 17.1765 19.0906 -2.35705
289 1 18.1078 17.2403 -0.818508 18.1078 17.2403 -0.818508
290 2 20.0082 17.072 0.875704 20.0082 17.072 0.875704
291 2 20.2712 17.3441 -2.29791 20.2712 17.3441 -2.29791
292 1 21.0715 18.982 -0.497032 21.0715 18.982 -0.497032
293 2 22.9445 18.8115 1.11836 22.9445 18.8115 1.11836
294 2 23.139 18.9813 -2.06581 23.139 18.9813 -2.06581
295 1 23.8897 17.1282 -0.43441 23.8897 17.1282 -0.43441
296 2 25.6234 16.9518 1.21929 25.6234 16.9518 1.21929
297 2 25.787 17.3578 -1.98053 25.787 17.3578 -1.98053
298 1 26.7767 18.8594 -0.121776 26.7767 18.8594 -0.121776
299 2 28.6904 18.7589 1.57157 28.6904 18.7589 1.57157
300 2 28.7474 18.8802 -1.61996 28.7474 18.8802 -1.61996
301 1 29.6268 17.0572 -0.0303395 29.6268 17.0572 -0.0303395
302 2 31.72 16.9948 1.40091 31.72 16.9948 1.40091
303 2 31.4735 17.1653 -1.82452 31.4735 17.1653 -1.82452
304 1 32.582 18.8003 -0.113475 32.582 18.8003 -0.113475
305 2 34.2687 18.6117 1.78434 34.2687 18.6117 1.78434
306 2 34.6341 18.8482 -1.5208 34.6341 18.8482 -1.5208
307 1 35.3633 17.0786 0.157529 35.3633 17.0786 0.157529
308 2 37.3399 17.0865 1.69746 37.3399 17.0865 1.69746
309 2 37.1323 17.1622 -1.57525 37.1323 17.1622 -1.57525
310 1 38.1277 18.7424 0.0853696 38.1277 18.7424 0.0853696
311 2 40.1824 18.6425 1.65065 40.1824 18.6425 1.65065
312 2 39.9919 18.8957 -1.53064 39.9919 18.8957 -1.53064
313 1 40.9304 17.032 -0.0679206 40.9304 17.032 -0.0679206
314 2 42.8099 17.239 1.63832 42.8099 17.239 1.63832
315 2 42.9796 16.8153 -1.48861 42.9796 16.8153 -1.48861
316 1 43.814 18.8516 -0.122791 43.814 18.8516 -0.122791
317 2 45.6536 18.8461 1.70098 45.6536 18.8461 1.70098
318 2 45.9552 18.8311 -1.65605 45.9552 18.8311 -1.65605
319 1 46.6968 17.2006 0.14437 46.6968 17.2006 0.14437
320 2 48.6799 17.1786 1.62598 48.6799 17.1786 1.62598
321 2 48.5031 16.986 -1.60995 48.5031 16.986 -1.60995
322 1 49.5352 18.7937 -0.195302 49.5352 18.7937 -0.195302
323 2 51.5932 18.8045 1.25671 51.5932 18.8045 1.25671
324 2 51.3594 18.9796 -1.92473 51.3594 18.9796 -1.92473
325 1 0.894385 20.6205 -0.428015 0.894385 20.6205 -0.428015
326 2 2.68605 20.6198 1.34747 2.68605 20.6198 1.34747
327 2 2.97543 20.4454 -1.93139 2.97543 20.4454 -1.93139
328 1 3.77146 22.3072 -0.208107 3.77146 22.3072 -0.208107
329 2 5.71886 22.2054 1.44001 5.71886 22.2054 1.44001
330 2 5.63327 22.2346 -1.8146 5.63327 22.2346 -1.8146
331 1 6.68544 20.482 -0.28458 6.68544 20.482 -0.28458
332 2 8.76239 20.3277 1.24321 8.76239 20.3277 1.24321
333 2 8.60355 20.6194 -1.9476 8.60355 20.6194 -1.9476
334 1 9.55572 22.3004 -0.215833 9.55572 22.3004 -0.215833
335 2 11.5897 22.3242 1.1773 11.5897 22.3242 1.1773
336 2 11.2072 22.3553 -2.04374 11.2072 22.3553 -2.04374
337 1 12.3441 20.6573 -0.516127 12.3441 20.6573 -0.516127
338 2 14.4704 20.5749 0.944601 14.4704 20.5749 0.944601
339 2 14.3051 20.8415 -2.23008 14.3051 20.8415 -2.23008
340 1 15.2828 22.3718 -0.637677 15.2828 22.3718 -0.637677
341 2 17.2006 22.3109 1.09512 17.2006 22.3109 1.09512
342 2 17.2673 22.4645 -2.18889 17.2673 22.4645 -2.18889
343 1 18.1643 20.6484 -0.652778 18.1643 20.6484 -0.652778
344 2 19.9031 20.5437 1.10552 19.9031 20.5437 1.10552
345 2 20.1824 20.5836 -2.11444 20.1824 20.5836 -2.11444
346 1 20.9573 22.3385 -0.407179 20.9573 22.3385 -0.407179
347 2 22.994 22.365 1.25666 22.994 22.365 1.25666
348 2 23.0683 22.424 -1.94745 23.0683 22.424 -1.94745
349 1 23.9798 20.6008 -0.307085 23.9798 20.6008 -0.307085
350 2 25.6899 20.5524 1.4592 25.6899 20.5524 1.4592
351 2 26.072 20.5957 -1.71402 26.072 20.5957 -1.71402
352 1 26.8454 22.2377 -0.0141489 26.8454 22.2377 -0.0141489
353 2 28.5881 22.2427 1.67986 28.5881 22.2427 1.67986
354 2 28.7844 22.27 -1.56241 28.7844 22.27 -1.56241
355 1 29.7146 20.5188 0.103707 29.7146 20.5188 0.103707
356 2 31.7136 20.4334 1.62018 31.7136 20.4334 1.62018
357 2 31.5499 20.5956 -1.55472 31.5499 20.5956 -1.55472
358 1 32.538 22.2998 0.0393069 32.538 22.2998 0.0393069
359 2 34.3606 22.2104 1.83059 34.3606 22.2104 1.83059
360 2 34.5199 22.2742 -1.369 34.5199 22.2742 -1.369
361 1 35.2935 20.4532 0.28793 35.2935 20.4532 0.28793
362 2 37.3818 20.4508 1.84283 37.3818 20.4508 1.84283
363 2 37.2401 20.6658 -1.3508 37.2401 20.6658 -1.3508
364 1 38.2395 22.2673 0.341719 38.2395 22.2673 0.341719
365 2 40.123 22.1997 1.77556 40.123 22.1997 1.77556
366 2 39.9332 22.2352 -1.50561 39.9332 22.2352 -1.50561
367 1 40.9945 20.525 0.109427 40.9945 20.525 0.109427
368 2 43.0562 20.4857 1.64826 43.0562 20.4857 1.64826
369 2 42.816 20.6252 -1.64814 42.816 20.6252 -1.64814
370 1 43.8776 22.237 -0.0217389 43.8776 22.237 -0.0217389
371 2 45.7476 22.1453 1.68403 45.7476 22.1453 1.68403
372 2 45.7892 22.2291 -1.57079 45.7892 22.2291 -1.57079
373 1 46.7971 20.5483 0.0654428 46.7971 20.5483 0.0654428
374 2 48.7834 20.6818 1.48173 48.7834 20.6818 1.48173
375 2 48.4328 20.3723 -1.7337 48.4328 20.3723 -1.7337
376 1 49.602 22.2615 -0.215613 49.602 22.2615 -0.215613
377 2 51.44 22.2108 1.3512 51.44 22.2108 1.3512
378 2 51.3557 22.4615 -1.85781 51.3557 22.4615 -1.85781
379 1 0.932739 24.0235 -0.134335 0.932739 24.0235 -0.134335
380 2 2.75166 23.9374 1.53382 2.75166 23.9374 1.53382
381 2 2.83878 24.0998 -1.75148 2.83878 24.0998 -1.75148
382 1 3.798 25.7849 -0.0700703 3.798 25.7849 -0.0700703
383 2 5.74832 25.7176 1.47588 5.74832 25.7176 1.47588
384 2 5.73315 25.6031 -1.67307 5.73315 25.6031 -1.67307
385 1 6.69952 23.8756 -0.126478 6.69952 23.8756 -0.126478
386 2 8.52692 23.9736 1.50256 8.52692 23.9736 1.50256
387 2 8.66346 24.0787 -1.736 8.66346 24.0787 -1.736
388 1 9.53919 25.7513 -0.0244577 9.53919 25.7513 -0.0244577
389 2 11.6662 25.5328 1.3733 11.6662 25.5328 1.3733
390 2 11.3158 25.9763 -1.84033 11.3158 25.9763 -1.84033
391 1 12.3812 24.0128 -0.553456 12.3812 24.0128 -0.553456
392 2 14.2249 23.8066 1.19639 14.2249 23.8066 1.19639
393 2 14.3559 24.2819 -2.10614 14.3559 24.2819 -2.10614
394 1 15.3526 25.7102 -0.094766 15.3526 25.7102 -0.094766
395 2 17.3558 25.61 1.49191 17.3558 25.61 1.49191
396 2 17.0882 25.9431 -1.84208 17.0882 25.9431 -1.84208
397 1 18.1357 24.0934 -0.41888 18.1357 24.0934 -0.41888
398 2 19.8742 23.8994 1.3119 19.8742 23.8994 1.3119
399 2 20.1781 24.1001 -1.93001 20.1781 24.1001 -1.93001
400 1 21.053 25.7089 -0.105992 21.053 25.7089 -0.105992
401 2 23.0303 25.4307 1.59183 23.0303 25.4307 1.59183
402 2 22.9532 25.8285 -1.61079 22.9532 25.8285 -1.61079
403 1 23.9291 24.0157 -0.276487 23.9291 24.0157 -0.276487
404 2 25.782 23.9691 1.46108 25.782 23.9691 1.46108
405 2 26.107 23.8969 -1.68698 26.107 23.8969 -1.68698
406 1 26.7888 25.7023 0.0120605 26.7888 25.7023 0.0120605
407 2 28.5591 25.673 1.73972 28.5591 25.673 1.73972
408 2 28.7145 25.5181 -1.50054 28.7145 25.5181 -1.50054
409 1 29.6721 23.9623 0.192029 29.6721 23.9623 0.192029
410 2 31.6236 23.9594 1.67504 31.6236 23.9594 1.67504
411 2 31.516 23.9255 -1.54859 31.516 23.9255 -1.54859
412 1 32.4387 25.7793 0.0390994 32.4387 25.7793 0.0390994
413 2 34.208 25.4859 1.87149 34.208 25.4859 1.87149
414 2 34.4875 25.8364 -1.37341 34.4875 25.8364 -1.37341
415 1 35.2865 23.9477 0.229766 35.2865 23.9477 0.229766
416 2 37.0905 24.0483 1.88724 37.0905 24.0483 1.88724
417 2 37.2705 24.0071 -1.36136 37.2705 24.0071 -1.36136
418 1 38.1319 25.7205 0.273114 38.1319 25.7205 0.273114
419 2 40.0238 25.5656 1.86213 40.0238 25.5656 1.86213
420 2 40.0202 25.7475 -1.4459 40.0202 25.7475 -1.4459
421 1 41.0023 23.9542 0.101145 41.0023 23.9542 0.101145
422 2 42.9263 24.0197 1.63125 42.9263 24.0197 1.63125
423 2 42.9746 24.0463 -1.6216 42.9746 24.0463 -1.6216
424 1 43.7393 25.7877 0.131786 43.7393 25.7877 0.131786
425 2 45.6617 25.8839 1.77819 45.6617 25.8839 1.77819
426 2 45.7164 25.6831 -1.43723 45.7164 25.6831 -1.43723
427 1 46.6667 23.9951 0.330853 46.6667 23.9951 0.330853
428 2 48.9115 23.9307 1.68882 48.9115 23.9307 1.68882
429 2 48.395 24.0269 -1.53333 48.395 24.0269 -1.53333
430 1 49.4414 25.7538 -0.0127042 49.4414 25.7538 -0.0127042
431 2 51.4537 25.7461 1.45135 51.4537 25.7461 1.45135
432 2 51.3118 25.7136 -1.69826 51.3118 25.7136 -1.69826
433 1 0.81576 27.4715 -0.156079 0.81576 27.4715 -0.156079
434 2 2.8392 27.444 1.53374 2.8392 27.444 1.53374
435 2 2.92189 27.5894 -1.70029 2.92189 27.5894 -1.70029
436 1 3.85391 29.2366 0.0213133 3.85391 29.2366 0.0213133
437 2 5.82268 29.0362 1.58216 5.82268 29.0362 1.58216
438 2 5.79079 29.2722 -1.5831 5.79079 29.2722 -1.5831
439 1 6.74518 27.4199 -0.130685 6.74518 27.4199 -0.130685
440 2 8.61337 27.4156 1.57023 8.61337 27.4156 1.57023
441 2 8.72669 27.4753 -1.65493 8.72669 27.4753 -1.65493
442 1 9.49565 29.1541 -0.00562284 9.49565 29.1541 -0.00562284
443 2 11.3658 29.0288 1.67574 11.3658 29.0288 1.67574
444 2 11.5585 29.2002 -1.63575 11.5585 29.2002 -1.63575
445 1 12.4047 27.3916 -0.11899 12.4047 27.3916 -0.11899
446 2 14.396 27.4691 1.52025 14.396 27.4691 1.52025
447 2 14.3272 27.4133 -1.75753 14.3272 27.4133 -1.75753
448 1 15.3946 29.1046 -0.165471 15.3946 29.1046 -0.165471
449 2 17.1526 29.1178 1.64782 17.1526 29.1178 1.64782
450 2 17.4727 29.2951 -1.59417 17.4727 29.2951 -1.59417
451 1 18.1674 27.447 -0.00710284 18.1674 27.447 -0.00710284
452 2 20.2083 27.492 1.48456 20.2083 27.492 1.48456
453 2 20.1711 27.3299 -1.76183 20.1711 27.3299 -1.76183
454 1 21.0576 29.1933 -0.214304 21.0576 29.1933 -0.214304
455 2 22.7305 29.0658 1.72605 22.7305 29.0658 1.72605
456 2 23.1662 29.334 -1.42603 23.1662 29.334 -1.42603
457 1 23.953 27.4684 0.187468 23.953 27.4684 0.187468
458 2 26.0298 27.3763 1.67861 26.0298 27.3763 1.67861
459 2 25.7748 27.4876 -1.57964 25.7748 27.4876 -1.57964
460 1 26.7605 29.1427 0.079929 26.7605 29.1427 0.079929
461 2 28.6754 29.2665 1.82063 28.6754 29.2665 1.82063
462 2 28.7026 29.1755 -1.49248 28.7026 29.1755 -1.49248
463 1 29.482 27.4129 0.170845 29.482 27.4129 0.170845
464 2 31.48 27.2193 1.79604 31.48 27.2193 1.79604
465 2 31.2659 27.6044 -1.54947 31.2659 27.6044 -1.54947
466 1 32.3148 29.1127 0.152198 32.3148 29.1127 0.152198
467 2 34.0906 29.1862 1.911 34.0906 29.1862 1.911
468 2 34.3764 29.0298 -1.29002 34.3764 29.0298 -1.29002
469 1 35.2135 27.3812 0.534833 35.2135 27.3812 0.534833
470 2 37.2375 27.3854 2.03153 37.2375 27.3854 2.03153
471 2 37.0509 27.3867 -1.32019 37.0509 27.3867 -1.32019
472 1 38.0917 29.0729 0.353693 38.0917 29.0729 0.353693
473 2 39.905 29.0441 1.98676 39.905 29.0441 1.98676
474 2 39.9526 29.1473 -1.32278 39.9526 29.1473 -1.32278
475 1 40.8863 27.425 0.20908 40.8863 27.425 0.20908
476 2 42.7963 27.3473 1.80207 42.7963 27.3473 1.80207
477 2 42.8249 27.6747 -1.34538 42.8249 27.6747 -1.34538
478 1 43.7096 29.1755 0.389442 43.7096 29.1755 0.389442
479 2 45.684 29.0028 1.93226 45.684 29.0028 1.93226
480 2 45.5485 29.3515 -1.31964 45.5485 29.3515 -1.31964
481 1 46.5605 27.4973 0.0440044 46.5605 27.4973 0.0440044
482 2 48.4928 27.32 1.68174 48.4928 27.32 1.68174
483 2 48.5419 27.522 -1.55038 48.5419 27.522 -1.55038
484 1 49.4139 29.1673 0.210537 49.4139 29.1673 0.210537
485 2 51.6106 29.1393 1.59614 51.6106 29.1393 1.59614
486 2 51.1994 29.2178 -1.55355 51.1994 29.2178 -1.55355
487 1 0.962604 30.9428 0.00720101 0.962604 30.9428 0.00720101
488 2 2.94322 31.0112 1.6464 2.94322 31.0112 1.6464
489 2 2.88316 30.8784 -1.62553 2.88316 30.8784 -1.62553
490 1 3.81959 32.6354 -0.0353409 3.81959 32.6354 -0.0353409
491 2 5.6976 32.7465 1.65368 5.6976 32.7465 1.65368
492 2 5.64555 32.4542 -1.67708 5.64555 32.4542 -1.67708
493 1 6.72436 30.928 0.108707 6.72436 30.928 0.108707
494 2 8.6709 30.9152 1.62212 8.6709 30.9152 1.62212
495 2 8.46636 30.8816 -1.66001 8.46636 30.8816 -1.66001
496 1 9.48687 32.6248 -0.114317 9.48687 32.6248 -0.114317
497 2 11.2482 32.5094 1.65178 11.2482 32.5094 1.65178
498 2 11.534 32.6386 -1.44978 11.534 32.6386 -1.44978
499 1 12.3618 30.7475 0.171849 12.3618 30.7475 0.171849
500 2 14.472 30.6881 1.61305 14.472 30.6881 1.61305
501 2 14.2503 30.8111 -1.55108 14.2503 30.8111 -1.55108
502 1 15.2474 32.4925 0.100202 15.2474 32.4925 0.100202
503 2 17.2166 32.6589 1.88107 17.2166 32.6589 1.88107
504 2 17.2501 32.6748 -1.43398 17.2501 32.6748 -1.43398
505 1 18.1606 30.9212 0.203896 18.1606 30.9212 0.203896
506 2 20.1792 30.6731 1.60017 20.1792 30.6731 1.60017
507 2 20.0216 31.1522 -1.52115 20.0216 31.1522 -1.52115
508 1 21.0138 32.6433 0.296577 21.0138 32.6433 0.296577
509 2 22.9318 32.8797 1.82417 22.9318 32.8797 1.82417
510 2 22.8672 32.4576 -1.36025 22.8672 32.4576 -1.36025
511 1 23.8943 30.994 0.38755 23.8943 30.994 0.38755
512 2 25.9409 30.9489 1.6981 25.9409 30.9489 1.6981
513 2 25.585 30.8647 -1.40489 25.585 30.8647 -1.40489
514 1 26.7285 32.6083 0.00285788 26.7285 32.6083 0.00285788
515 2 28.738 32.85 1.52362 28.738 32.85 1.52362
516 2 28.5811 32.5071 -1.69128 28.5811 32.5071 -1.69128
517 1 29.589 30.9064 0.0814054 29.589 30.9064 0.0814054
518 2 31.3796 30.915 1.72827 31.3796 30.915 1.72827
519 2 31.626 30.8961 -1.37449 31.626 30.8961 -1.37449
520 1 32.4703 32.6408 0.0917986 32.4703 32.6408 0.0917986
521 2 34.2997 32.7278 1.72946 34.2997 32.7278 1.72946
522 2 34.3934 32.3817 -1.42568 34.3934 32.3817 -1.42568
523 1 35.3072 30.8855 0.383907 35.3072 30.8855 0.383907
524 2 37.2104 30.803 1.97337 37.2104 30.803 1.97337
525 2 37.2791 30.7201 -1.26812 37.2791 30.7201 -1.26812
526 1 38.0251 32.656 0.398838 38.0251 32.656 0.398838
527 2 39.9651 32.5058 2.13575 39.9651 32.5058 2.13575
528 2 40.0698 32.7632 -1.18481 40.0698 32.7632 -1.18481
529 1 40.8652 30.8455 0.407001 40.8652 30.8455 0.407001
530 2 42.8136 30.6789 2.15382 42.8136 30.6789 2.15382
531 2 42.7672 31.0697 -1.13698 42.7672 31.0697 -1.13698
532 1 43.7535 32.5875 0.694111 43.7535 32.5875 0.694111
533 2 45.7118 32.4761 2.19356 45.7118 32.4761 2.19356
534 2 45.5812 32.7577 -1.0965 45.5812 32.7577 -1.0965
535 1 46.6867 30.9402 0.426025 46.6867 30.9402 0.426025
536 2 48.7085 31.0167 1.85822 48.7085 31.0167 1.85822
537 2 48.3743 30.8282 -1.39807 48.3743 30.8282 -1.39807