ITEM: TIMESTEP
2052000
ITEM: NUMBER OF ATOMS
810
ITEM: BOX BOUNDS pp pp pp
8.0341777045796159e-01 5.2214187229542503e+01
-4.2630893870405595e+00 5.5279304387039431e+01
-1.0000000000000000e+01 1.0000000000000000e+01
ITEM: ATOMS id type x y z xu yu zu
1 1 1.03541 -3.84791 0.386505 1.03541 -3.84791 0.386505
2 2 3.24948 -3.99296 1.63138 3.24948 -3.99296 1.63138
3 2 2.77345 -4.09525 -1.61204 2.77345 -4.09525 -1.61204
4 1 3.90047 -1.93958 -0.0449526 3.90047 -1.93958 -0.0449526
5 2 5.89321 -1.96035 1.63468 5.89321 -1.96035 1.63468
6 2 5.97546 -2.06164 -1.62869 5.97546 -2.06164 -1.62869
7 1 6.76272 -4.00769 0.0797019 6.76272 -4.00769 0.0797019
8 2 8.65789 -4.22517 1.69936 8.65789 -4.22517 1.69936
9 2 8.64977 -3.80014 -1.45055 8.64977 -3.80014 -1.45055
10 1 9.54467 -1.99058 0.309104 9.54467 -1.99058 0.309104
11 2 11.5534 -2.1006 1.78045 11.5534 -2.1006 1.78045
12 2 11.3204 -1.98908 -1.5423 11.3204 -1.98908 -1.5423
13 1 12.4373 -3.93208 -0.00600726 12.4373 -3.93208 -0.00600726
14 2 14.3263 -3.94213 1.58953 14.3263 -3.94213 1.58953
15 2 14.4575 -3.90865 -1.69879 14.4575 -3.90865 -1.69879
16 1 15.2008 -1.97832 -0.0363428 15.2008 -1.97832 -0.0363428
17 2 17.4336 -1.82585 1.38874 17.4336 -1.82585 1.38874
18 2 17.0308 -1.93511 -1.90153 17.0308 -1.93511 -1.90153
19 1 17.9865 -3.85102 -0.438207 17.9865 -3.85102 -0.438207
20 2 19.7897 -3.98634 1.32418 19.7897 -3.98634 1.32418
21 2 20.1648 -3.78441 -1.9104 20.1648 -3.78441 -1.9104
22 1 20.8428 -1.91959 -0.101379 20.8428 -1.91959 -0.101379
23 2 22.8526 -1.90389 1.42723 22.8526 -1.90389 1.42723
24 2 22.7729 -1.86333 -1.77161 22.7729 -1.86333 -1.77161
25 1 23.7042 -3.89413 -0.229541 23.7042 -3.89413 -0.229541
26 2 25.8169 -3.93547 1.37984 25.8169 -3.93547 1.37984
27 2 25.797 -3.80549 -1.9086 25.797 -3.80549 -1.9086
28 1 26.6476 -1.91355 -0.224554 26.6476 -1.91355 -0.224554
29 2 28.691 -1.79965 1.43262 28.691 -1.79965 1.43262
30 2 28.5361 -1.85528 -1.91695 28.5361 -1.85528 -1.91695
31 1 29.5747 -3.87044 -0.282198 29.5747 -3.87044 -0.282198
32 2 31.3052 -3.71589 1.38663 31.3052 -3.71589 1.38663
33 2 31.5751 -3.75915 -1.68904 31.5751 -3.75915 -1.68904
34 1 32.3668 -1.85694 0.0837028 32.3668 -1.85694 0.0837028
35 2 34.423 -1.82277 1.62269 34.423 -1.82277 1.62269
36 2 34.3065 -1.95956 -1.62412 34.3065 -1.95956 -1.62412
37 1 35.3225 -4.12771 -0.0571161 35.3225 -4.12771 -0.0571161
38 2 37.5941 -4.04252 1.34116 37.5941 -4.04252 1.34116
39 2 37.2367 -4.04069 -1.82353 37.2367 -4.04069 -1.82353
40 1 38.2557 -1.9958 -0.277204 38.2557 -1.9958 -0.277204
41 2 40.2902 -1.85275 1.35665 40.2902 -1.85275 1.35665
42 2 40.3408 -2.11605 -1.78836 40.3408 -2.11605 -1.78836
43 1 41.0759 -4.00699 0.0335283 41.0759 -4.00699 0.0335283
44 2 43.0572 -4.11326 1.65514 43.0572 -4.11326 1.65514
45 2 43.0597 -4.00857 -1.48038 43.0597 -4.00857 -1.48038
46 1 43.8494 -1.98768 -0.0152434 43.8494 -1.98768 -0.0152434
47 2 45.7639 -1.92482 1.82344 45.7639 -1.92482 1.82344
48 2 45.8755 -2.08592 -1.43845 45.8755 -2.08592 -1.43845
49 1 46.6801 -4.11037 0.204808 46.6801 -4.11037 0.204808
50 2 48.7826 -4.08438 1.73318 48.7826 -4.08438 1.73318
51 2 48.6411 -3.99223 -1.41125 48.6411 -3.99223 -1.41125
52 1 49.4961 -1.97499 0.208578 49.4961 -1.97499 0.208578
53 2 51.5076 -1.8715 1.86355 51.5076 -1.8715 1.86355
54 2 51.5551 -1.97896 -1.36496 51.5551 -1.97896 -1.36496
55 1 0.981107 0.0177811 0.106216 0.981107 0.0177811 0.106216
56 2 3.04898 -0.197082 1.59212 3.04898 -0.197082 1.59212
57 2 2.81456 -0.0488349 -1.64326 2.81456 -0.0488349 -1.64326
58 1 3.90924 1.80097 -0.0735177 3.90924 1.80097 -0.0735177
59 2 5.85275 1.86895 1.54021 5.85275 1.86895 1.54021
60 2 5.81864 1.91668 -1.6665 5.81864 1.91668 -1.6665
61 1 6.8331 0.00924524 0.0546533 6.8331 0.00924524 0.0546533
62 2 8.65186 0.0339317 1.73969 8.65186 0.0339317 1.73969
63 2 8.8602 -0.0775583 -1.47534 8.8602 -0.0775583 -1.47534
64 1 9.58714 1.97832 0.193915 9.58714 1.97832 0.193915
65 2 11.7457 2.14565 1.67441 11.7457 2.14565 1.67441
66 2 11.3429 1.88436 -1.52671 11.3429 1.88436 -1.52671
67 1 12.3674 0.0364154 0.109211 12.3674 0.0364154 0.109211
68 2 14.4181 -0.0339274 1.52225 14.4181 -0.0339274 1.52225
69 2 14.2103 0.0237817 -1.63757 14.2103 0.0237817 -1.63757
70 1 15.1244 1.97815 -0.0703345 15.1244 1.97815 -0.0703345
71 2 17.2049 1.84519 1.24801 17.2049 1.84519 1.24801
72 2 16.9675 1.94423 -1.91771 16.9675 1.94423 -1.91771
73 1 18.1525 0.0789834 -0.38532 18.1525 0.0789834 -0.38532
74 2 19.8103 0.0208011 1.34106 19.8103 0.0208011 1.34106
75 2 20.1233 0.035863 -1.82858 20.1233 0.035863 -1.82858
76 1 20.8511 2.06684 -0.110997 20.8511 2.06684 -0.110997
77 2 22.7807 1.96299 1.58787 22.7807 1.96299 1.58787
78 2 22.8163 2.29403 -1.65671 22.8163 2.29403 -1.65671
79 1 23.8142 0.0474233 -0.223428 23.8142 0.0474233 -0.223428
80 2 25.8529 -0.0210215 1.39337 25.8529 -0.0210215 1.39337
81 2 25.7417 0.0598891 -1.83015 25.7417 0.0598891 -1.83015
82 1 26.7979 1.98295 -0.250451 26.7979 1.98295 -0.250451
83 2 28.6541 1.80061 1.42971 28.6541 1.80061 1.42971
84 2 28.6841 2.04003 -1.78423 28.6841 2.04003 -1.78423
85 1 29.5906 -0.0507316 -0.324024 29.5906 -0.0507316 -0.324024
86 2 31.3238 0.0293557 1.5526 31.3238 0.0293557 1.5526
87 2 31.6675 -0.0195072 -1.67561 31.6675 -0.0195072 -1.67561
88 1 32.4001 1.94581 0.0281509 32.4001 1.94581 0.0281509
89 2 34.3924 1.96615 1.584 34.3924 1.96615 1.584
90 2 34.4028 2.12708 -1.56407 34.4028 2.12708 -1.56407
91 1 35.3292 0.116931 -0.0735833 35.3292 0.116931 -0.0735833
92 2 37.3432 -0.115286 1.41789 37.3432 -0.115286 1.41789
93 2 37.1687 0.2404 -1.72677 37.1687 0.2404 -1.72677
94 1 38.0782 2.11081 -0.0396174 38.0782 2.11081 -0.0396174
95 2 40.1503 2.04099 1.47992 40.1503 2.04099 1.47992
96 2 39.8682 2.11574 -1.79377 39.8682 2.11574 -1.79377
97 1 40.9748 0.101992 -0.288433 40.9748 0.101992 -0.288433
98 2 42.8429 -0.0378638 1.51069 42.8429 -0.0378638 1.51069
99 2 43.1624 0.0785765 -1.66894 43.1624 0.0785765 -1.66894
100 1 43.8275 2.01016 0.0157753 43.8275 2.01016 0.0157753
101 2 45.8019 2.05596 1.54076 45.8019 2.05596 1.54076
102 2 45.6545 2.07052 -1.55154 45.6545 2.07052 -1.55154
103 1 46.5693 0.0178969 0.0729073 46.5693 0.0178969 0.0729073
104 2 48.4677 0.00223367 1.7852 48.4677 0.00223367 1.7852
105 2 48.5912 0.0835558 -1.35619 48.5912 0.0835558 -1.35619
106 1 49.4637 2.02501 0.352415 49.4637 2.02501 0.352415
107 2 51.5481 2.08911 1.84276 51.5481 2.08911 1.84276
108 2 51.4578 1.93657 -1.42174 51.4578 1.93657 -1.42174
109 1 0.915507 3.86336 0.106827 0.915507 3.86336 0.106827
110 2 2.96614 3.97256 1.50361 2.96614 3.97256 1.50361
111 2 2.82233 3.81526 -1.57991 2.82233 3.81526 -1.57991
112 1 3.75104 5.90076 -0.195848 3.75104 5.90076 -0.195848
113 2 5.76424 5.86721 1.4157 5.76424 5.86721 1.4157
114 2 5.65534 5.57969 -1.77327 5.65534 5.57969 -1.77327
115 1 6.64355 3.82932 -0.0836993 6.64355 3.82932 -0.0836993
116 2 8.63722 4.00542 1.65006 8.63722 4.00542 1.65006
117 2 8.61602 3.86473 -1.64398 8.61602 3.86473 -1.64398
118 1 9.52507 5.96698 -0.0509321 9.52507 5.96698 -0.0509321
119 2 11.3227 5.70605 1.55912 11.3227 5.70605 1.55912
120 2 11.5495 6.0811 -1.63012 11.5495 6.0811 -1.63012
121 1 12.3164 3.9538 -0.148702 12.3164 3.9538 -0.148702
122 2 14.4213 4.04885 1.4655 14.4213 4.04885 1.4655
123 2 14.1111 3.86718 -1.87571 14.1111 3.86718 -1.87571
124 1 15.1376 5.96297 -0.486417 15.1376 5.96297 -0.486417
125 2 17.001 5.90361 1.23483 17.001 5.90361 1.23483
126 2 17.1548 6.10638 -2.0519 17.1548 6.10638 -2.0519
127 1 18.0034 3.998 -0.384749 18.0034 3.998 -0.384749
128 2 19.7375 4.13636 1.36722 19.7375 4.13636 1.36722
129 2 19.9803 4.07774 -1.80914 19.9803 4.07774 -1.80914
130 1 20.8418 5.94648 -0.137688 20.8418 5.94648 -0.137688
131 2 22.8174 6.02237 1.53561 22.8174 6.02237 1.53561
132 2 22.9091 5.95669 -1.706 22.9091 5.95669 -1.706
133 1 23.8459 3.88313 0.0548025 23.8459 3.88313 0.0548025
134 2 25.8802 3.88372 1.49786 25.8802 3.88372 1.49786
135 2 25.6621 3.96784 -1.69985 25.6621 3.96784 -1.69985
136 1 26.657 5.8406 -0.11327 26.657 5.8406 -0.11327
137 2 28.5777 5.70733 1.60874 28.5777 5.70733 1.60874
138 2 28.5822 5.99746 -1.66054 28.5822 5.99746 -1.66054
139 1 29.4988 3.87207 -0.145425 29.4988 3.87207 -0.145425
140 2 31.3445 3.86711 1.55358 31.3445 3.86711 1.55358
141 2 31.5742 4.08804 -1.54604 31.5742 4.08804 -1.54604
142 1 32.3197 5.90546 0.18486 32.3197 5.90546 0.18486
143 2 34.445 5.98828 1.84371 34.445 5.98828 1.84371
144 2 34.1541 6.13142 -1.43277 34.1541 6.13142 -1.43277
145 1 35.2357 4.03336 0.204079 35.2357 4.03336 0.204079
146 2 37.3233 4.08584 1.64729 37.3233 4.08584 1.64729
147 2 36.9258 4.00162 -1.58251 36.9258 4.00162 -1.58251
148 1 37.944 5.99523 -0.13224 37.944 5.99523 -0.13224
149 2 39.9019 5.89205 1.44379 39.9019 5.89205 1.44379
150 2 40.0747 5.92091 -1.70721 40.0747 5.92091 -1.70721
151 1 40.8488 4.02838 -0.140542 40.8488 4.02838 -0.140542
152 2 42.6526 4.07992 1.6071 42.6526 4.07992 1.6071
153 2 42.8552 4.10952 -1.67565 42.8552 4.10952 -1.67565
154 1 43.6848 6.00233 0.0422659 43.6848 6.00233 0.0422659
155 2 45.7679 5.99647 1.59583 45.7679 5.99647 1.59583
156 2 45.5094 5.985 -1.62748 45.5094 5.985 -1.62748
157 1 46.5087 3.99704 -0.089263 46.5087 3.99704 -0.089263
158 2 48.3402 4.08488 1.67506 48.3402 4.08488 1.67506
159 2 48.7026 3.85554 -1.57748 48.7026 3.85554 -1.57748
160 1 49.4312 5.94962 -0.0202584 49.4312 5.94962 -0.0202584
161 2 51.2347 5.86185 1.66014 51.2347 5.86185 1.66014
162 2 51.5917 5.95232 -1.57783 51.5917 5.95232 -1.57783
163 1 0.938246 7.77528 0.0975906 0.938246 7.77528 0.0975906
164 2 3.01239 7.8453 1.49992 3.01239 7.8453 1.49992
165 2 2.61797 7.88829 -1.72739 2.61797 7.88829 -1.72739
166 1 3.75851 9.85552 -0.0979224 3.75851 9.85552 -0.0979224
167 2 5.74211 9.70294 1.47862 5.74211 9.70294 1.47862
168 2 5.83356 10.0354 -1.62535 5.83356 10.0354 -1.62535
169 1 6.69587 7.90116 -0.224419 6.69587 7.90116 -0.224419
170 2 8.54597 7.96947 1.54388 8.54597 7.96947 1.54388
171 2 8.58111 7.97896 -1.75117 8.58111 7.97896 -1.75117
172 1 9.54182 10.0019 -0.0924308 9.54182 10.0019 -0.0924308
173 2 11.5357 10.1941 1.6492 11.5357 10.1941 1.6492
174 2 11.5315 9.82669 -1.48275 11.5315 9.82669 -1.48275
175 1 12.4211 7.98227 0.203641 12.4211 7.98227 0.203641
176 2 14.7226 7.91496 1.28352 14.7226 7.91496 1.28352
177 2 14.1041 8.05385 -1.75221 14.1041 8.05385 -1.75221
178 1 15.1753 10.0511 -0.404593 15.1753 10.0511 -0.404593
179 2 17.057 9.97948 1.31998 17.057 9.97948 1.31998
180 2 17.2956 10.0663 -1.90882 17.2956 10.0663 -1.90882
181 1 17.9926 8.07142 -0.231163 17.9926 8.07142 -0.231163
182 2 19.9634 8.1074 1.4632 19.9634 8.1074 1.4632
183 2 19.9379 8.04859 -1.75597 19.9379 8.04859 -1.75597
184 1 20.833 10.0251 -0.139009 20.833 10.0251 -0.139009
185 2 22.8073 9.98263 1.43607 22.8073 9.98263 1.43607
186 2 22.729 9.90946 -1.74331 22.729 9.90946 -1.74331
187 1 23.6472 7.92779 -0.0564001 23.6472 7.92779 -0.0564001
188 2 25.7277 7.84607 1.5683 25.7277 7.84607 1.5683
189 2 25.6417 7.95565 -1.67474 25.6417 7.95565 -1.67474
190 1 26.6467 9.95729 0.0523866 26.6467 9.95729 0.0523866
191 2 28.634 9.88021 1.71815 28.634 9.88021 1.71815
192 2 28.7664 9.98118 -1.35576 28.7664 9.98118 -1.35576
193 1 29.3996 7.9077 0.203823 29.3996 7.9077 0.203823
194 2 31.4628 7.87566 1.7925 31.4628 7.87566 1.7925
195 2 31.3801 7.84996 -1.3444 31.3801 7.84996 -1.3444
196 1 32.2315 9.86036 0.250141 32.2315 9.86036 0.250141
197 2 34.1419 9.91929 1.83338 34.1419 9.91929 1.83338
198 2 34.2397 9.93552 -1.32388 34.2397 9.93552 -1.32388
199 1 35.0885 8.04982 0.270685 35.0885 8.04982 0.270685
200 2 37.1544 7.95765 1.63472 37.1544 7.95765 1.63472
201 2 36.9373 8.02447 -1.50785 36.9373 8.02447 -1.50785
202 1 37.9966 9.98847 0.0284931 37.9966 9.98847 0.0284931
203 2 40.0383 9.95687 1.53776 40.0383 9.95687 1.53776
204 2 39.8928 10.1507 -1.62111 39.8928 10.1507 -1.62111
205 1 40.8845 7.97808 -0.136395 40.8845 7.97808 -0.136395
206 2 42.775 8.04673 1.55011 42.775 8.04673 1.55011
207 2 42.9128 7.84979 -1.7159 42.9128 7.84979 -1.7159
208 1 43.6091 9.95494 -0.169184 43.6091 9.95494 -0.169184
209 2 45.6069 9.90929 1.504 45.6069 9.90929 1.504
210 2 45.776 9.86071 -1.68153 45.776 9.86071 -1.68153
211 1 46.5381 7.91045 -0.011367 46.5381 7.91045 -0.011367
212 2 48.4801 7.89837 1.64441 48.4801 7.89837 1.64441
213 2 48.5418 7.92782 -1.56926 48.5418 7.92782 -1.56926
214 1 49.4858 9.89682 0.071898 49.4858 9.89682 0.071898
215 2 51.5586 9.86914 1.59353 51.5586 9.86914 1.59353
216 2 51.4905 9.82585 -1.53409 51.4905 9.82585 -1.53409
217 1 0.967357 11.9177 -0.00409772 0.967357 11.9177 -0.00409772
218 2 2.99513 11.8884 1.49598 2.99513 11.8884 1.49598
219 2 2.86544 11.8925 -1.71476 2.86544 11.8925 -1.71476
220 1 3.77474 13.887 -0.141257 3.77474 13.887 -0.141257
221 2 5.80591 14.0236 1.44595 5.80591 14.0236 1.44595
222 2 5.7356 13.6865 -1.68743 5.7356 13.6865 -1.68743
223 1 6.64556 11.8663 -0.0375389 6.64556 11.8663 -0.0375389
224 2 8.61863 11.7979 1.53677 8.61863 11.7979 1.53677
225 2 8.59362 11.9355 -1.58506 8.59362 11.9355 -1.58506
226 1 9.38971 13.9631 0.0416068 9.38971 13.9631 0.0416068
227 2 11.5243 14.1023 1.47581 11.5243 14.1023 1.47581
228 2 11.1867 13.9639 -1.783 11.1867 13.9639 -1.783
229 1 12.3807 12.0684 -0.107943 12.3807 12.0684 -0.107943
230 2 14.5987 12.1582 1.21146 14.5987 12.1582 1.21146
231 2 14.1461 11.9049 -1.97997 14.1461 11.9049 -1.97997
232 1 15.1481 13.9934 -0.625225 15.1481 13.9934 -0.625225
233 2 16.9454 14.0104 1.22834 16.9454 14.0104 1.22834
234 2 17.4374 14.0205 -1.90091 17.4374 14.0205 -1.90091
235 1 17.9964 12.0263 -0.244415 17.9964 12.0263 -0.244415
236 2 19.8705 11.9782 1.48106 19.8705 11.9782 1.48106
237 2 20.1448 12.0288 -1.71393 20.1448 12.0288 -1.71393
238 1 20.8314 13.9438 -0.0666406 20.8314 13.9438 -0.0666406
239 2 22.796 14.1308 1.52066 22.796 14.1308 1.52066
240 2 22.779 13.7617 -1.72162 22.779 13.7617 -1.72162
241 1 23.8493 12.0072 -0.0406773 23.8493 12.0072 -0.0406773
242 2 25.6262 11.9043 1.72018 25.6262 11.9043 1.72018
243 2 25.9032 11.8694 -1.58898 25.9032 11.8694 -1.58898
244 1 26.6268 13.9912 0.063485 26.6268 13.9912 0.063485
245 2 28.6052 14.0666 1.74934 28.6052 14.0666 1.74934
246 2 28.7414 13.7576 -1.57276 28.7414 13.7576 -1.57276
247 1 29.5049 11.99 0.241805 29.5049 11.99 0.241805
248 2 31.5678 11.9967 1.69251 31.5678 11.9967 1.69251
249 2 31.3977 11.8993 -1.43391 31.3977 11.8993 -1.43391
250 1 32.2886 14.0297 0.073677 32.2886 14.0297 0.073677
251 2 34.237 13.9446 1.70911 34.237 13.9446 1.70911
252 2 34.1833 13.7769 -1.52922 34.1833 13.7769 -1.52922
253 1 35.1621 11.9585 0.194831 35.1621 11.9585 0.194831
254 2 37.1315 11.9331 1.72651 37.1315 11.9331 1.72651
255 2 37.0762 11.9912 -1.40653 37.0762 11.9912 -1.40653
256 1 38.0563 13.9173 0.0436832 38.0563 13.9173 0.0436832
257 2 40.0903 13.8591 1.59175 40.0903 13.8591 1.59175
258 2 39.9346 13.8929 -1.68382 39.9346 13.8929 -1.68382
259 1 40.851 11.8902 0.00100658 40.851 11.8902 0.00100658
260 2 42.8322 11.7813 1.5431 42.8322 11.7813 1.5431
261 2 42.5908 11.903 -1.70981 42.5908 11.903 -1.70981
262 1 43.6933 13.7466 -0.178866 43.6933 13.7466 -0.178866
263 2 45.5736 13.9367 1.54865 45.5736 13.9367 1.54865
264 2 45.7643 13.9389 -1.66063 45.7643 13.9389 -1.66063
265 1 46.5836 11.8866 -0.0493977 46.5836 11.8866 -0.0493977
266 2 48.5547 11.9195 1.51147 48.5547 11.9195 1.51147
267 2 48.7293 11.8595 -1.68534 48.7293 11.8595 -1.68534
268 1 49.4954 13.8132 -0.131189 49.4954 13.8132 -0.131189
269 2 51.4583 14.0049 1.33034 51.4583 14.0049 1.33034
270 2 51.393 13.6897 -1.73682 51.393 13.6897 -1.73682
271 1 0.846016 15.8826 -0.351192 0.846016 15.8826 -0.351192
272 2 2.66341 15.8383 1.30256 2.66341 15.8383 1.30256
273 2 3.00436 15.9414 -1.77351 3.00436 15.9414 -1.77351
274 1 3.73311 17.8534 -0.211724 3.73311 17.8534 -0.211724
275 2 5.71511 18.0095 1.37204 5.71511 18.0095 1.37204
276 2 5.78357 17.9671 -1.77802 5.78357 17.9671 -1.77802
277 1 6.56871 15.9126 -0.200467 6.56871 15.9126 -0.200467
278 2 8.49453 15.9836 1.4381 8.49453 15.9836 1.4381
279 2 8.46539 15.6946 -1.66883 8.46539 15.6946 -1.66883
280 1 9.36669 17.8299 -0.259211 9.36669 17.8299 -0.259211
281 2 11.409 17.7277 1.26993 11.409 17.7277 1.26993
282 2 11.2946 17.9084 -1.93261 11.2946 17.9084 -1.93261
283 1 12.2414 15.9412 -0.363403 12.2414 15.9412 -0.363403
284 2 14.2766 15.8507 1.08532 14.2766 15.8507 1.08532
285 2 14.0969 16.0697 -2.1166 14.0969 16.0697 -2.1166
286 1 15.1625 17.8336 -0.38678 15.1625 17.8336 -0.38678
287 2 16.9733 17.9319 1.42782 16.9733 17.9319 1.42782
288 2 17.2614 17.8729 -1.87426 17.2614 17.8729 -1.87426
289 1 18.0342 15.8999 -0.195269 18.0342 15.8999 -0.195269
290 2 20.0653 16.244 1.38448 20.0653 16.244 1.38448
291 2 19.985 15.8549 -1.77264 19.985 15.8549 -1.77264
292 1 20.9044 17.9656 -0.305573 20.9044 17.9656 -0.305573
293 2 22.8634 17.7165 1.28009 22.8634 17.7165 1.28009
294 2 22.9264 17.8792 -1.81312 22.9264 17.8792 -1.81312
295 1 23.7002 15.8154 -0.285289 23.7002 15.8154 -0.285289
296 2 25.4918 15.8864 1.55045 25.4918 15.8864 1.55045
297 2 25.9522 15.8181 -1.68593 25.9522 15.8181 -1.68593
298 1 26.6516 17.8172 0.0108924 26.6516 17.8172 0.0108924
299 2 28.6421 17.811 1.53483 28.6421 17.811 1.53483
300 2 28.4376 17.702 -1.66946 28.4376 17.702 -1.66946
301 1 29.4035 15.8705 -0.022654 29.4035 15.8705 -0.022654
302 2 31.3087 15.972 1.56967 31.3087 15.972 1.56967
303 2 31.469 15.8619 -1.50349 31.469 15.8619 -1.50349
304 1 32.3433 17.9614 -0.034536 32.3433 17.9614 -0.034536
305 2 34.2223 17.9171 1.48654 34.2223 17.9171 1.48654
306 2 34.2502 17.8371 -1.58981 34.2502 17.8371 -1.58981
307 1 35.1548 15.7862 0.0369819 35.1548 15.7862 0.0369819
308 2 37.1769 15.9636 1.59261 37.1769 15.9636 1.59261
309 2 37.0868 15.769 -1.5369 37.0868 15.769 -1.5369
310 1 38.0338 17.8695 -0.0281812 38.0338 17.8695 -0.0281812
311 2 39.9599 17.9351 1.5819 39.9599 17.9351 1.5819
312 2 39.9951 17.7873 -1.59307 39.9951 17.7873 -1.59307
313 1 40.9044 15.8481 0.0581691 40.9044 15.8481 0.0581691
314 2 42.9901 15.7016 1.49331 42.9901 15.7016 1.49331
315 2 42.7551 15.8236 -1.73372 42.7551 15.8236 -1.73372
316 1 43.7848 17.6201 -0.125901 43.7848 17.6201 -0.125901
317 2 45.5511 17.7081 1.61098 45.5511 17.7081 1.61098
318 2 45.7298 17.6528 -1.63982 45.7298 17.6528 -1.63982
319 1 46.5579 15.7502 -0.0203316 46.5579 15.7502 -0.0203316
320 2 48.5875 15.6707 1.5572 48.5875 15.6707 1.5572
321 2 48.5538 15.7779 -1.62613 48.5538 15.7779 -1.62613
322 1 49.4414 17.8261 0.0100992 49.4414 17.8261 0.0100992
323 2 51.5859 17.5796 1.44317 51.5859 17.5796 1.44317
324 2 51.2162 18.0698 -1.76842 51.2162 18.0698 -1.76842
325 1 0.959307 19.7687 -0.178749 0.959307 19.7687 -0.178749
326 2 2.9455 19.8472 1.34765 2.9455 19.8472 1.34765
327 2 2.79771 19.8391 -1.74884 2.79771 19.8391 -1.74884
328 1 3.75449 21.9069 -0.212358 3.75449 21.9069 -0.212358
329 2 5.75969 21.9216 1.34663 5.75969 21.9216 1.34663
330 2 5.62222 21.7901 -1.90034 5.62222 21.7901 -1.90034
331 1 6.52517 19.8939 -0.214817 6.52517 19.8939 -0.214817
332 2 8.61536 19.8165 1.34362 8.61536 19.8165 1.34362
333 2 8.52142 19.6153 -1.87401 8.52142 19.6153 -1.87401
334 1 9.48424 21.7987 -0.383871 9.48424 21.7987 -0.383871
335 2 11.4696 21.8029 1.21079 11.4696 21.8029 1.21079
336 2 11.4536 21.6362 -1.96529 11.4536 21.6362 -1.96529
337 1 12.2523 19.8051 -0.298901 12.2523 19.8051 -0.298901
338 2 14.3011 19.8551 1.19037 14.3011 19.8551 1.19037
339 2 14.2867 19.8094 -1.95415 14.2867 19.8094 -1.95415
340 1 15.1708 21.9383 -0.516019 15.1708 21.9383 -0.516019
341 2 17.0735 21.881 1.23392 17.0735 21.881 1.23392
342 2 17.1751 21.7631 -1.96749 17.1751 21.7631 -1.96749
343 1 18.0574 19.84 -0.226858 18.0574 19.84 -0.226858
344 2 19.9861 19.6381 1.45349 19.9861 19.6381 1.45349
345 2 20.0064 20.0094 -1.74059 20.0064 20.0094 -1.74059
346 1 20.8875 21.8129 0.0314612 20.8875 21.8129 0.0314612
347 2 23.0522 21.7145 1.4199 23.0522 21.7145 1.4199
348 2 22.8173 21.7802 -1.73021 22.8173 21.7802 -1.73021
349 1 23.8506 19.7676 -0.178867 23.8506 19.7676 -0.178867
350 2 25.7913 19.8042 1.54287 25.7913 19.8042 1.54287
351 2 25.8342 19.8126 -1.66374 25.8342 19.8126 -1.66374
352 1 26.6984 21.8958 -0.0548365 26.6984 21.8958 -0.0548365
353 2 28.7791 21.7609 1.56342 28.7791 21.7609 1.56342
354 2 28.794 21.9469 -1.55425 28.794 21.9469 -1.55425
355 1 29.4436 19.8115 -0.155657 29.4436 19.8115 -0.155657
356 2 31.4917 19.8724 1.49137 31.4917 19.8724 1.49137
357 2 31.5247 19.9923 -1.72405 31.5247 19.9923 -1.72405
358 1 32.3006 21.9302 -0.218495 32.3006 21.9302 -0.218495
359 2 34.3759 21.9649 1.30335 34.3759 21.9649 1.30335
360 2 34.3024 21.9884 -1.80884 34.3024 21.9884 -1.80884
361 1 35.2083 19.8437 -0.244179 35.2083 19.8437 -0.244179
362 2 37.3117 19.9287 1.41367 37.3117 19.9287 1.41367
363 2 37.2041 19.675 -1.70291 37.2041 19.675 -1.70291
364 1 38.1252 21.7794 -0.237519 38.1252 21.7794 -0.237519
365 2 40.0197 21.9072 1.49191 40.0197 21.9072 1.49191
366 2 40.2771 21.823 -1.65903 40.2771 21.823 -1.65903
367 1 40.9678 19.8296 -0.0509189 40.9678 19.8296 -0.0509189
368 2 42.87 19.6438 1.52696 42.87 19.6438 1.52696
369 2 42.9475 19.8077 -1.677 42.9475 19.8077 -1.677
370 1 43.8204 21.6993 0.090785 43.8204 21.6993 0.090785
371 2 45.8391 21.719 1.61205 45.8391 21.719 1.61205
372 2 45.7633 21.7042 -1.47991 45.7633 21.7042 -1.47991
373 1 46.5887 19.6555 -0.0450038 46.5887 19.6555 -0.0450038
374 2 48.5207 19.7902 1.49673 48.5207 19.7902 1.49673
375 2 48.5914 19.7454 -1.58449 48.5914 19.7454 -1.58449
376 1 49.5423 21.7955 -0.15241 49.5423 21.7955 -0.15241
377 2 51.6226 21.8226 1.46001 51.6226 21.8226 1.46001
378 2 51.4448 21.7517 -1.76091 51.4448 21.7517 -1.76091
379 1 0.928087 23.8251 -0.111635 0.928087 23.8251 -0.111635
380 2 3.05835 24.0345 1.33039 3.05835 24.0345 1.33039
381 2 2.79001 23.6724 -1.93762 2.79001 23.6724 -1.93762
382 1 3.91725 25.7384 -0.606545 3.91725 25.7384 -0.606545
383 2 5.82572 25.8864 1.14161 5.82572 25.8864 1.14161
384 2 5.96588 25.7576 -2.19438 5.96588 25.7576 -2.19438
385 1 6.71641 23.7281 -0.404566 6.71641 23.7281 -0.404566
386 2 8.88619 23.881 1.11506 8.88619 23.881 1.11506
387 2 8.44682 23.6103 -2.04982 8.44682 23.6103 -2.04982
388 1 9.48595 25.6535 -0.633985 9.48595 25.6535 -0.633985
389 2 11.5126 25.6921 1.02873 11.5126 25.6921 1.02873
390 2 11.4512 25.5923 -2.1507 11.4512 25.5923 -2.1507
391 1 12.2444 23.7554 -0.452137 12.2444 23.7554 -0.452137
392 2 14.2913 23.7291 1.15833 14.2913 23.7291 1.15833
393 2 14.3135 23.9295 -2.10659 14.3135 23.9295 -2.10659
394 1 15.1563 25.7584 -0.372398 15.1563 25.7584 -0.372398
395 2 17.2463 25.8277 1.13372 17.2463 25.8277 1.13372
396 2 17.1233 25.6367 -1.98645 17.1233 25.6367 -1.98645
397 1 18.124 23.76 -0.346481 18.124 23.76 -0.346481
398 2 19.8418 23.896 1.42509 19.8418 23.896 1.42509
399 2 20.1825 23.5648 -1.84617 20.1825 23.5648 -1.84617
400 1 20.8137 25.7852 -0.269426 20.8137 25.7852 -0.269426
401 2 22.93 25.7598 1.2532 22.93 25.7598 1.2532
402 2 22.731 25.7704 -1.89972 22.731 25.7704 -1.89972
403 1 23.735 23.8126 -0.373653 23.735 23.8126 -0.373653
404 2 25.7678 24.0594 1.21916 25.7678 24.0594 1.21916
405 2 25.7495 23.6374 -1.89599 25.7495 23.6374 -1.89599
406 1 26.6384 25.8451 -0.470218 26.6384 25.8451 -0.470218
407 2 28.3386 25.9261 1.47885 28.3386 25.9261 1.47885
408 2 28.8932 25.917 -1.81608 28.8932 25.917 -1.81608
409 1 29.5041 23.945 0.120161 29.5041 23.945 0.120161
410 2 31.6067 23.7598 1.65438 31.6067 23.7598 1.65438
411 2 31.3092 23.9379 -1.62825 31.3092 23.9379 -1.62825
412 1 32.3606 25.7738 0.0222865 32.3606 25.7738 0.0222865
413 2 34.4323 25.8079 1.48885 34.4323 25.8079 1.48885
414 2 34.1593 25.8426 -1.70016 34.1593 25.8426 -1.70016
415 1 35.3188 23.9037 -0.156959 35.3188 23.9037 -0.156959
416 2 37.2709 23.7989 1.42636 37.2709 23.7989 1.42636
417 2 37.1757 23.8487 -1.7808 37.1757 23.8487 -1.7808
418 1 38.2243 25.7945 -0.244862 38.2243 25.7945 -0.244862
419 2 40.0801 25.5802 1.54574 40.0801 25.5802 1.54574
420 2 40.1902 25.9625 -1.75631 40.1902 25.9625 -1.75631
421 1 40.9591 23.8004 -0.143458 40.9591 23.8004 -0.143458
422 2 42.7306 23.7819 1.67726 42.7306 23.7819 1.67726
423 2 43.0723 23.666 -1.55431 43.0723 23.666 -1.55431
424 1 43.8987 25.6988 0.107958 43.8987 25.6988 0.107958
425 2 45.9549 25.8965 1.64898 45.9549 25.8965 1.64898
426 2 45.6938 25.6948 -1.68703 45.6938 25.6948 -1.68703
427 1 46.6249 23.8023 -0.0595389 46.6249 23.8023 -0.0595389
428 2 48.7151 23.974 1.35721 48.7151 23.974 1.35721
429 2 48.5314 23.7337 -1.75172 48.5314 23.7337 -1.75172
430 1 49.5517 25.7113 -0.445449 49.5517 25.7113 -0.445449
431 2 51.529 25.926 1.21972 51.529 25.926 1.21972
432 2 51.592 25.5577 -1.81298 51.592 25.5577 -1.81298
433 1 1.08636 27.6709 -0.468311 1.08636 27.6709 -0.468311
434 2 3.11284 27.7449 0.998169 3.11284 27.7449 0.998169
435 2 2.90956 27.6461 -2.21082 2.90956 27.6461 -2.21082
436 1 3.9205 29.7112 -0.628495 3.9205 29.7112 -0.628495
437 2 5.85104 29.8238 0.983018 5.85104 29.8238 0.983018
438 2 5.85332 29.6258 -2.23984 5.85332 29.6258 -2.23984
439 1 6.73883 27.7191 -0.603129 6.73883 27.7191 -0.603129
440 2 8.70641 27.5597 1.02765 8.70641 27.5597 1.02765
441 2 8.59591 27.5189 -2.26448 8.59591 27.5189 -2.26448
442 1 9.52495 29.698 -0.581846 9.52495 29.698 -0.581846
443 2 11.4773 29.8705 1.11482 11.4773 29.8705 1.11482
444 2 11.5323 29.813 -2.13127 11.5323 29.813 -2.13127
445 1 12.2928 27.7832 -0.50378 12.2928 27.7832 -0.50378
446 2 14.4504 27.8593 1.12943 14.4504 27.8593 1.12943
447 2 14.2001 27.7376 -2.04509 14.2001 27.7376 -2.04509
448 1 15.2327 29.7082 -0.480077 15.2327 29.7082 -0.480077
449 2 17.1791 29.7093 1.06846 17.1791 29.7093 1.06846
450 2 17.0744 29.5552 -2.10655 17.0744 29.5552 -2.10655
451 1 18.0381 27.8165 -0.429567 18.0381 27.8165 -0.429567
452 2 19.9837 27.9214 1.21939 19.9837 27.9214 1.21939
453 2 20.0043 27.7183 -1.9565 20.0043 27.7183 -1.9565
454 1 20.9555 29.7783 -0.439692 20.9555 29.7783 -0.439692
455 2 22.8591 29.8809 1.16137 22.8591 29.8809 1.16137
456 2 22.9724 29.6046 -1.95979 22.9724 29.6046 -1.95979
457 1 23.855 27.6868 -0.328836 23.855 27.6868 -0.328836
458 2 25.8968 27.7867 1.17605 25.8968 27.7867 1.17605
459 2 25.7064 27.9012 -2.00502 25.7064 27.9012 -2.00502
460 1 26.6423 29.8254 -0.278057 26.6423 29.8254 -0.278057
461 2 28.6231 30.0039 1.39249 28.6231 30.0039 1.39249
462 2 28.6942 29.738 -1.84118 28.6942 29.738 -1.84118
463 1 29.4875 27.889 -0.0485424 29.4875 27.889 -0.0485424
464 2 31.5393 27.7871 1.56382 31.5393 27.7871 1.56382
465 2 31.4376 27.8764 -1.70328 31.4376 27.8764 -1.70328
466 1 32.4508 29.6527 -0.0764082 32.4508 29.6527 -0.0764082
467 2 34.4637 29.8431 1.45082 34.4637 29.8431 1.45082
468 2 34.3404 29.6704 -1.66603 34.3404 29.6704 -1.66603
469 1 35.2301 27.688 -0.188518 35.2301 27.688 -0.188518
470 2 37.3635 27.7389 1.35758 37.3635 27.7389 1.35758
471 2 37.2595 27.8596 -1.92816 37.2595 27.8596 -1.92816
472 1 38.141 29.7296 -0.115018 38.141 29.7296 -0.115018
473 2 40.17 29.7646 1.54841 40.17 29.7646 1.54841
474 2 40.18 29.7518 -1.58138 40.18 29.7518 -1.58138
475 1 40.9829 27.6234 0.0688705 40.9829 27.6234 0.0688705
476 2 42.9812 27.8236 1.77062 42.9812 27.8236 1.77062
477 2 42.8701 27.725 -1.52545 42.8701 27.725 -1.52545
478 1 43.749 29.6661 0.130931 43.749 29.6661 0.130931
479 2 45.9724 29.7202 1.46821 45.9724 29.7202 1.46821
480 2 45.5994 29.6288 -1.62392 45.5994 29.6288 -1.62392
481 1 46.6952 27.71 -0.127409 46.6952 27.71 -0.127409
482 2 49.0172 27.6918 1.32542 49.0172 27.6918 1.32542
483 2 48.537 27.7381 -1.83085 48.537 27.7381 -1.83085
484 1 49.6182 29.6105 -0.31347 49.6182 29.6105 -0.31347
485 2 51.6779 29.6785 1.12855 51.6779 29.6785 1.12855
486 2 51.4633 29.6729 -1.99392 51.4633 29.6729 -1.99392
487 1 1.07616 31.5453 -0.605021 1.07616 31.5453 -0.605021
488 2 3.12061 31.5726 0.907793 3.12061 31.5726 0.907793
489 2 2.99738 31.7533 -2.08557 2.99738 31.7533 -2.08557
490 1 3.81899 33.6841 -0.453546 3.81899 33.6841 -0.453546
491 2 5.85756 33.5389 1.03902 5.85756 33.5389 1.03902
492 2 5.73171 33.7229 -2.10159 5.73171 33.7229 -2.10159
493 1 6.7046 31.6637 -0.737119 6.7046 31.6637 -0.737119
494 2 8.52946 31.7217 1.06348 8.52946 31.7217 1.06348
495 2 8.82038 31.6464 -2.15831 8.82038 31.6464 -2.15831
496 1 9.56769 33.7127 -0.531685 9.56769 33.7127 -0.531685
497 2 11.53 33.6514 0.968358 11.53 33.6514 0.968358
498 2 11.5087 33.7489 -2.04964 11.5087 33.7489 -2.04964
499 1 12.4007 31.7395 -0.550885 12.4007 31.7395 -0.550885
500 2 14.3766 31.7699 1.04486 14.3766 31.7699 1.04486
501 2 14.3445 31.4992 -2.15736 14.3445 31.4992 -2.15736
502 1 15.167 33.6909 -0.598939 15.167 33.6909 -0.598939
503 2 17.1933 33.6244 0.993529 17.1933 33.6244 0.993529
504 2 17.238 33.8003 -2.10304 17.238 33.8003 -2.10304
505 1 18.0548 31.702 -0.727227 18.0548 31.702 -0.727227
506 2 19.8892 31.6574 1.04023 19.8892 31.6574 1.04023
507 2 20.1518 31.7108 -2.08974 20.1518 31.7108 -2.08974
508 1 20.9309 33.7105 -0.484514 20.9309 33.7105 -0.484514
509 2 22.7245 33.5165 1.20628 22.7245 33.5165 1.20628
510 2 23.0392 33.8277 -1.94368 23.0392 33.8277 -1.94368
511 1 23.8585 31.7161 -0.397729 23.8585 31.7161 -0.397729
512 2 25.6352 31.7198 1.41415 25.6352 31.7198 1.41415
513 2 25.8798 31.7457 -1.88517 25.8798 31.7457 -1.88517
514 1 26.6447 33.6924 -0.133174 26.6447 33.6924 -0.133174
515 2 28.6678 33.6324 1.50554 28.6678 33.6324 1.50554
516 2 28.6091 33.8548 -1.74227 28.6091 33.8548 -1.74227
517 1 29.515 31.8126 -0.281174 29.515 31.8126 -0.281174
518 2 31.3987 31.9513 1.39743 31.3987 31.9513 1.39743
519 2 31.6371 31.6037 -1.76077 31.6371 31.6037 -1.76077
520 1 32.381 33.7675 -0.16701 32.381 33.7675 -0.16701
521 2 34.3884 33.6874 1.23662 34.3884 33.6874 1.23662
522 2 34.4414 33.7412 -1.83759 34.4414 33.7412 -1.83759
523 1 35.2592 31.7499 -0.249433 35.2592 31.7499 -0.249433
524 2 37.0487 31.7809 1.5198 37.0487 31.7809 1.5198
525 2 37.3282 31.6563 -1.75187 37.3282 31.6563 -1.75187
526 1 38.1095 33.5658 -0.134964 38.1095 33.5658 -0.134964
527 2 40.0855 33.5558 1.49608 40.0855 33.5558 1.49608
528 2 40.1205 33.4381 -1.72756 40.1205 33.4381 -1.72756
529 1 41.0054 31.6453 -0.0683325 41.0054 31.6453 -0.0683325
530 2 42.9211 31.6067 1.71349 42.9211 31.6067 1.71349
531 2 43.1146 31.7162 -1.5894 43.1146 31.7162 -1.5894
532 1 43.842 33.7276 0.126341 43.842 33.7276 0.126341
533 2 45.7775 33.6836 1.62856 45.7775 33.6836 1.62856