ITEM: TIMESTEP
196000
ITEM: NUMBER OF ATOMS
810
ITEM: BOX BOUNDS pp pp pp
8.0341777045796159e-01 5.2214187229542503e+01
3.2165517173360497e-01 5.0694559828265263e+01
-1.0000000000000000e+01 1.0000000000000000e+01
ITEM: ATOMS id type x y z xu yu zu
1 1 1.00281 0.59805 -0.298282 1.00281 0.59805 -0.298282
2 2 2.97479 0.629547 1.22414 2.97479 0.629547 1.22414
3 2 2.85431 0.624816 -2.04239 2.85431 0.624816 -2.04239
4 1 3.882 2.27585 -0.42789 3.882 2.27585 -0.42789
5 2 5.8614 2.14253 1.27843 5.8614 2.14253 1.27843
6 2 5.76176 2.10218 -2.09013 5.76176 2.10218 -2.09013
7 1 6.76372 0.488582 -0.346042 6.76372 0.488582 -0.346042
8 2 8.75215 0.602753 1.27079 8.75215 0.602753 1.27079
9 2 8.68271 0.516438 -2.00181 8.68271 0.516438 -2.00181
10 1 9.59079 2.3067 -0.355073 9.59079 2.3067 -0.355073
11 2 11.3604 2.25302 1.39248 11.3604 2.25302 1.39248
12 2 11.6561 2.17545 -1.87862 11.6561 2.17545 -1.87862
13 1 12.4299 0.520272 -0.139196 12.4299 0.520272 -0.139196
14 2 14.479 0.517429 1.35697 14.479 0.517429 1.35697
15 2 14.271 0.652369 -1.81537 14.271 0.652369 -1.81537
16 1 15.3209 2.25484 -0.213635 15.3209 2.25484 -0.213635
17 2 17.2605 2.34224 1.38026 17.2605 2.34224 1.38026
18 2 17.268 2.06072 -1.90213 17.268 2.06072 -1.90213
19 1 18.1193 0.545759 -0.193246 18.1193 0.545759 -0.193246
20 2 19.7962 0.611402 1.67765 19.7962 0.611402 1.67765
21 2 20.2153 0.59129 -1.53944 20.2153 0.59129 -1.53944
22 1 20.989 2.2495 0.201862 20.989 2.2495 0.201862
23 2 22.9679 2.25824 1.77971 22.9679 2.25824 1.77971
24 2 22.969 2.09236 -1.50489 22.969 2.09236 -1.50489
25 1 23.9174 0.469188 0.215871 23.9174 0.469188 0.215871
26 2 25.9877 0.436128 1.73084 25.9877 0.436128 1.73084
27 2 25.7466 0.435559 -1.53694 25.7466 0.435559 -1.53694
28 1 26.7376 2.18061 0.0386176 26.7376 2.18061 0.0386176
29 2 28.5074 2.20497 1.73018 28.5074 2.20497 1.73018
30 2 28.7705 2.09509 -1.42998 28.7705 2.09509 -1.42998
31 1 29.6073 0.506663 0.267321 29.6073 0.506663 0.267321
32 2 31.3535 0.434244 2.04365 31.3535 0.434244 2.04365
33 2 31.4836 0.466064 -1.323 31.4836 0.466064 -1.323
34 1 32.4946 2.13769 0.377603 32.4946 2.13769 0.377603
35 2 34.2314 2.03321 2.14851 34.2314 2.03321 2.14851
36 2 34.487 2.41501 -1.01678 34.487 2.41501 -1.01678
37 1 35.2961 0.460586 0.483332 35.2961 0.460586 0.483332
38 2 37.2549 0.452882 2.14925 37.2549 0.452882 2.14925
39 2 37.1964 0.548382 -1.08855 37.1964 0.548382 -1.08855
40 1 38.1873 2.1938 0.653302 38.1873 2.1938 0.653302
41 2 40.1485 2.10314 2.08489 40.1485 2.10314 2.08489
42 2 39.9235 2.31043 -1.13629 39.9235 2.31043 -1.13629
43 1 40.9827 0.497766 0.365901 40.9827 0.497766 0.365901
44 2 42.962 0.616602 1.83947 42.962 0.616602 1.83947
45 2 42.7712 0.520277 -1.37423 42.7712 0.520277 -1.37423
46 1 43.8153 2.19803 0.168963 43.8153 2.19803 0.168963
47 2 45.8295 2.06793 1.71164 45.8295 2.06793 1.71164
48 2 45.8931 2.43826 -1.42248 45.8931 2.43826 -1.42248
49 1 46.8488 0.52075 0.0188006 46.8488 0.52075 0.0188006
50 2 48.7675 0.571443 1.47441 48.7675 0.571443 1.47441
51 2 48.6729 0.582661 -1.79062 48.6729 0.582661 -1.79062
52 1 49.6173 2.21631 -0.201563 49.6173 2.21631 -0.201563
53 2 51.5047 2.08684 1.46721 51.5047 2.08684 1.46721
54 2 51.5375 2.29794 -1.7685 51.5375 2.29794 -1.7685
55 1 1.03688 3.94921 -0.02765 1.03688 3.94921 -0.02765
56 2 3.09685 3.88551 1.49589 3.09685 3.88551 1.49589
57 2 2.79026 3.97056 -1.83221 2.79026 3.97056 -1.83221
58 1 3.96116 5.59212 -0.243046 3.96116 5.59212 -0.243046
59 2 5.87515 5.53886 1.3299 5.87515 5.53886 1.3299
60 2 5.67923 5.72453 -1.98766 5.67923 5.72453 -1.98766
61 1 6.70595 3.90858 -0.524653 6.70595 3.90858 -0.524653
62 2 8.47524 3.91459 1.19994 8.47524 3.91459 1.19994
63 2 8.72657 4.01083 -2.01829 8.72657 4.01083 -2.01829
64 1 9.61175 5.63797 -0.19618 9.61175 5.63797 -0.19618
65 2 11.5602 5.44199 1.4107 11.5602 5.44199 1.4107
66 2 11.4941 5.66561 -1.87527 11.4941 5.66561 -1.87527
67 1 12.438 3.87425 -0.325713 12.438 3.87425 -0.325713
68 2 14.1933 3.8498 1.47853 14.1933 3.8498 1.47853
69 2 14.4741 4.00423 -1.77589 14.4741 4.00423 -1.77589
70 1 15.3161 5.58793 -0.0713842 15.3161 5.58793 -0.0713842
71 2 17.2249 5.37311 1.44453 17.2249 5.37311 1.44453
72 2 17.2283 5.56195 -1.75592 17.2283 5.56195 -1.75592
73 1 18.2539 3.8218 -0.312297 18.2539 3.8218 -0.312297
74 2 19.8007 3.94926 1.62575 19.8007 3.94926 1.62575
75 2 20.4098 3.89663 -1.62863 20.4098 3.89663 -1.62863
76 1 21.053 5.50939 0.154108 21.053 5.50939 0.154108
77 2 22.8931 5.48117 1.76863 22.8931 5.48117 1.76863
78 2 22.9283 5.66724 -1.47081 22.9283 5.66724 -1.47081
79 1 23.8538 3.87196 0.0838485 23.8538 3.87196 0.0838485
80 2 25.8035 3.70751 1.7039 25.8035 3.70751 1.7039
81 2 25.8779 4.00233 -1.53942 25.8779 4.00233 -1.53942
82 1 26.7396 5.57046 0.206699 26.7396 5.57046 0.206699
83 2 28.7095 5.47053 1.79742 28.7095 5.47053 1.79742
84 2 28.5975 5.62783 -1.40731 28.5975 5.62783 -1.40731
85 1 29.6437 3.84836 0.0974305 29.6437 3.84836 0.0974305
86 2 31.3117 3.85392 1.88631 31.3117 3.85392 1.88631
87 2 31.623 3.93783 -1.36061 31.623 3.93783 -1.36061
88 1 32.4403 5.47385 0.427226 32.4403 5.47385 0.427226
89 2 34.2186 5.50745 2.16544 34.2186 5.50745 2.16544
90 2 34.4462 5.45341 -1.03492 34.4462 5.45341 -1.03492
91 1 35.3481 3.83977 0.714052 35.3481 3.83977 0.714052
92 2 37.1473 3.79156 2.3346 37.1473 3.79156 2.3346
93 2 37.2211 3.95814 -0.917686 37.2211 3.95814 -0.917686
94 1 38.0605 5.46962 0.713069 38.0605 5.46962 0.713069
95 2 40.13 5.60035 2.10337 40.13 5.60035 2.10337
96 2 39.9012 5.5771 -1.06019 39.9012 5.5771 -1.06019
97 1 40.9716 3.86255 0.459371 40.9716 3.86255 0.459371
98 2 43.1246 3.82039 1.93027 43.1246 3.82039 1.93027
99 2 42.7805 3.93888 -1.34892 42.7805 3.93888 -1.34892
100 1 43.8825 5.49766 0.294993 43.8825 5.49766 0.294993
101 2 45.7672 5.47734 2.00072 45.7672 5.47734 2.00072
102 2 45.7127 5.63296 -1.22471 45.7127 5.63296 -1.22471
103 1 46.8029 3.9077 0.336841 46.8029 3.9077 0.336841
104 2 48.8764 3.63854 1.75472 48.8764 3.63854 1.75472
105 2 48.469 4.2013 -1.41838 48.469 4.2013 -1.41838
106 1 49.5956 5.62225 0.328479 49.5956 5.62225 0.328479
107 2 51.7234 5.67024 1.76548 51.7234 5.67024 1.76548
108 2 51.3626 5.67521 -1.50938 51.3626 5.67521 -1.50938
109 1 1.02292 7.33236 0.00961484 1.02292 7.33236 0.00961484
110 2 3.02746 7.34258 1.42783 3.02746 7.34258 1.42783
111 2 2.85719 7.18225 -1.76273 2.85719 7.18225 -1.76273
112 1 3.88815 8.97311 -0.212256 3.88815 8.97311 -0.212256
113 2 5.98068 9.18065 1.20778 5.98068 9.18065 1.20778
114 2 5.61513 8.90726 -1.90216 5.61513 8.90726 -1.90216
115 1 6.73473 7.26067 -0.345599 6.73473 7.26067 -0.345599
116 2 8.58042 7.38805 1.35049 8.58042 7.38805 1.35049
117 2 8.69558 7.19466 -1.88881 8.69558 7.19466 -1.88881
118 1 9.62425 8.9717 -0.389929 9.62425 8.9717 -0.389929
119 2 11.5208 8.91848 1.33559 11.5208 8.91848 1.33559
120 2 11.6692 8.81438 -1.83112 11.6692 8.81438 -1.83112
121 1 12.4568 7.19043 -0.160753 12.4568 7.19043 -0.160753
122 2 14.3258 7.2173 1.61648 14.3258 7.2173 1.61648
123 2 14.513 7.2938 -1.67986 14.513 7.2938 -1.67986
124 1 15.3411 8.88753 0.0718972 15.3411 8.88753 0.0718972
125 2 17.1776 8.75849 1.71224 17.1776 8.75849 1.71224
126 2 17.2369 8.83918 -1.60672 17.2369 8.83918 -1.60672
127 1 18.1774 7.14948 -0.00802315 18.1774 7.14948 -0.00802315
128 2 20.0127 7.08341 1.69387 20.0127 7.08341 1.69387
129 2 20.1517 7.17694 -1.50484 20.1517 7.17694 -1.50484
130 1 21.0235 8.88303 0.174412 21.0235 8.88303 0.174412
131 2 22.9867 9.03541 1.80708 22.9867 9.03541 1.80708
132 2 22.9224 8.81823 -1.49069 22.9224 8.81823 -1.49069
133 1 23.9157 7.24755 0.285142 23.9157 7.24755 0.285142
134 2 25.763 7.14716 1.89314 25.763 7.14716 1.89314
135 2 25.7524 7.15563 -1.42671 25.7524 7.15563 -1.42671
136 1 26.7326 8.94572 0.206579 26.7326 8.94572 0.206579
137 2 28.6449 9.00216 1.87334 28.6449 9.00216 1.87334
138 2 28.6032 8.86546 -1.39599 28.6032 8.86546 -1.39599
139 1 29.5592 7.31165 0.354929 29.5592 7.31165 0.354929
140 2 31.4918 7.25078 1.96767 31.4918 7.25078 1.96767
141 2 31.4154 7.12063 -1.30913 31.4154 7.12063 -1.30913
142 1 32.4234 8.90295 0.275983 32.4234 8.90295 0.275983
143 2 34.1918 9.12003 2.0488 34.1918 9.12003 2.0488
144 2 34.5064 8.82677 -1.19508 34.5064 8.82677 -1.19508
145 1 35.2719 7.22641 0.650175 35.2719 7.22641 0.650175
146 2 37.2267 7.26043 2.21364 37.2267 7.26043 2.21364
147 2 37.1508 7.13717 -0.91412 37.1508 7.13717 -0.91412
148 1 38.1718 8.91546 0.614345 38.1718 8.91546 0.614345
149 2 40.1873 8.91403 2.03255 40.1873 8.91403 2.03255
150 2 39.9838 8.94251 -1.21254 39.9838 8.94251 -1.21254
151 1 41.0069 7.31368 0.389743 41.0069 7.31368 0.389743
152 2 43.1314 7.32362 1.81814 43.1314 7.32362 1.81814
153 2 42.723 7.1442 -1.36632 42.723 7.1442 -1.36632
154 1 43.854 8.91987 -0.0515743 43.854 8.91987 -0.0515743
155 2 45.5645 9.10026 1.83609 45.5645 9.10026 1.83609
156 2 45.9103 8.99876 -1.45949 45.9103 8.99876 -1.45949
157 1 46.6846 7.24997 0.433994 46.6846 7.24997 0.433994
158 2 48.7229 7.3234 1.93379 48.7229 7.3234 1.93379
159 2 48.5552 7.2494 -1.42868 48.5552 7.2494 -1.42868
160 1 49.6211 8.90561 0.201766 49.6211 8.90561 0.201766
161 2 51.7333 9.10095 1.62767 51.7333 9.10095 1.62767
162 2 51.382 9.01269 -1.54584 51.382 9.01269 -1.54584
163 1 1.00492 10.6811 -0.117372 1.00492 10.6811 -0.117372
164 2 2.9873 10.5028 1.47411 2.9873 10.5028 1.47411
165 2 2.86081 10.602 -1.82273 2.86081 10.602 -1.82273
166 1 3.89277 12.3489 -0.199139 3.89277 12.3489 -0.199139
167 2 5.97113 12.4733 1.15615 5.97113 12.4733 1.15615
168 2 5.63318 12.4168 -2.07909 5.63318 12.4168 -2.07909
169 1 6.77127 10.7377 -0.556974 6.77127 10.7377 -0.556974
170 2 8.64584 10.7141 1.13612 8.64584 10.7141 1.13612
171 2 8.67229 10.7596 -2.15629 8.67229 10.7596 -2.15629
172 1 9.65999 12.2943 -0.491864 9.65999 12.2943 -0.491864
173 2 11.4464 12.1714 1.22674 11.4464 12.1714 1.22674
174 2 11.5959 12.2543 -2.01094 11.5959 12.2543 -2.01094
175 1 12.4836 10.5726 -0.294916 12.4836 10.5726 -0.294916
176 2 14.1732 10.7114 1.51039 14.1732 10.7114 1.51039
177 2 14.5792 10.6423 -1.76186 14.5792 10.6423 -1.76186
178 1 15.395 12.2677 -0.124894 15.395 12.2677 -0.124894
179 2 17.2363 12.2101 1.54458 17.2363 12.2101 1.54458
180 2 17.2299 12.1726 -1.59626 17.2299 12.1726 -1.59626
181 1 18.1665 10.5232 -0.0312318 18.1665 10.5232 -0.0312318
182 2 20.0576 10.6573 1.67762 20.0576 10.6573 1.67762
183 2 20.0287 10.4183 -1.61429 20.0287 10.4183 -1.61429
184 1 21.0568 12.2632 -0.111409 21.0568 12.2632 -0.111409
185 2 22.9506 12.4581 1.58807 22.9506 12.4581 1.58807
186 2 22.9923 12.1908 -1.75512 22.9923 12.1908 -1.75512
187 1 23.8741 10.6271 -0.00275236 23.8741 10.6271 -0.00275236
188 2 25.7005 10.7476 1.65728 25.7005 10.7476 1.65728
189 2 25.8517 10.5985 -1.5677 25.8517 10.5985 -1.5677
190 1 26.6902 12.2811 -0.0427714 26.6902 12.2811 -0.0427714
191 2 28.6911 12.5118 1.59018 28.6911 12.5118 1.59018
192 2 28.5935 11.9856 -1.54513 28.5935 11.9856 -1.54513
193 1 29.6178 10.6269 0.177646 29.6178 10.6269 0.177646
194 2 31.5021 10.7509 1.8297 31.5021 10.7509 1.8297
195 2 31.4546 10.4598 -1.46534 31.4546 10.4598 -1.46534
196 1 32.4636 12.2828 0.0108506 32.4636 12.2828 0.0108506
197 2 34.2828 12.4252 1.73279 34.2828 12.4252 1.73279
198 2 34.4533 12.0579 -1.51233 34.4533 12.0579 -1.51233
199 1 35.325 10.6127 0.3634 35.325 10.6127 0.3634
200 2 37.1791 10.6799 2.10188 37.1791 10.6799 2.10188
201 2 37.3963 10.5433 -1.27009 37.3963 10.5433 -1.27009
202 1 38.2311 12.2433 0.408126 38.2311 12.2433 0.408126
203 2 40.2335 12.3143 1.85319 40.2335 12.3143 1.85319
204 2 39.8719 12.1208 -1.28357 39.8719 12.1208 -1.28357
205 1 41.0333 10.5119 0.343922 41.0333 10.5119 0.343922
206 2 43.0178 10.5677 1.70563 43.0178 10.5677 1.70563
207 2 42.7985 10.6751 -1.43866 42.7985 10.6751 -1.43866
208 1 43.8679 12.236 0.120802 43.8679 12.236 0.120802
209 2 45.8219 12.4232 1.78077 45.8219 12.4232 1.78077
210 2 45.8557 12.1901 -1.47619 45.8557 12.1901 -1.47619
211 1 46.8096 10.6878 0.248002 46.8096 10.6878 0.248002
212 2 48.7044 10.7714 1.80945 48.7044 10.7714 1.80945
213 2 48.5946 10.464 -1.474 48.5946 10.464 -1.474
214 1 49.5417 12.3393 -0.0315219 49.5417 12.3393 -0.0315219
215 2 51.5872 12.3446 1.52854 51.5872 12.3446 1.52854
216 2 51.2945 12.2839 -1.74714 51.2945 12.2839 -1.74714
217 1 1.04169 14.03 -0.2267 1.04169 14.03 -0.2267
218 2 2.99982 14.1513 1.34711 2.99982 14.1513 1.34711
219 2 2.90745 13.8722 -1.86474 2.90745 13.8722 -1.86474
220 1 3.93442 15.6394 -0.412283 3.93442 15.6394 -0.412283
221 2 5.85731 15.6558 1.11111 5.85731 15.6558 1.11111
222 2 5.86057 15.647 -2.23634 5.86057 15.647 -2.23634
223 1 6.83576 13.9985 -0.525105 6.83576 13.9985 -0.525105
224 2 8.70258 13.968 1.12864 8.70258 13.968 1.12864
225 2 8.68046 13.8899 -2.21079 8.68046 13.8899 -2.21079
226 1 9.65732 15.6314 -0.645557 9.65732 15.6314 -0.645557
227 2 11.3934 15.8415 1.15162 11.3934 15.8415 1.15162
228 2 11.7659 15.4514 -2.09878 11.7659 15.4514 -2.09878
229 1 12.4844 13.936 -0.199888 12.4844 13.936 -0.199888
230 2 14.3308 14.0317 1.49832 14.3308 14.0317 1.49832
231 2 14.4642 13.9443 -1.75015 14.4642 13.9443 -1.75015
232 1 15.3076 15.6931 -0.21169 15.3076 15.6931 -0.21169
233 2 17.1521 15.7699 1.38731 17.1521 15.7699 1.38731
234 2 17.2798 15.5745 -1.82917 17.2798 15.5745 -1.82917
235 1 18.2491 13.9417 -0.0353192 18.2491 13.9417 -0.0353192
236 2 20.1479 13.8093 1.55143 20.1479 13.8093 1.55143
237 2 20.134 13.9941 -1.645 20.134 13.9941 -1.645
238 1 21.0648 15.6088 -0.000744784 21.0648 15.6088 -0.000744784
239 2 23.0492 15.6098 1.39571 23.0492 15.6098 1.39571
240 2 22.9077 15.6602 -1.79487 22.9077 15.6602 -1.79487
241 1 23.898 13.9646 -0.22887 23.898 13.9646 -0.22887
242 2 25.7349 14.1585 1.43351 25.7349 14.1585 1.43351
243 2 25.7234 13.6627 -1.85295 25.7234 13.6627 -1.85295
244 1 26.734 15.6146 -0.424119 26.734 15.6146 -0.424119
245 2 28.4887 15.768 1.29332 28.4887 15.768 1.29332
246 2 28.7895 15.5564 -1.92102 28.7895 15.5564 -1.92102
247 1 29.6306 13.9592 -0.175327 29.6306 13.9592 -0.175327
248 2 31.4428 13.9711 1.57404 31.4428 13.9711 1.57404
249 2 31.6465 13.8911 -1.77211 31.6465 13.8911 -1.77211
250 1 32.4922 15.636 -0.148872 32.4922 15.636 -0.148872
251 2 34.4487 15.5122 1.56686 34.4487 15.5122 1.56686
252 2 34.4658 15.631 -1.67989 34.4658 15.631 -1.67989
253 1 35.3647 13.9301 -0.0366724 35.3647 13.9301 -0.0366724
254 2 37.0678 14.1816 1.80846 37.0678 14.1816 1.80846
255 2 37.4165 13.8319 -1.51297 37.4165 13.8319 -1.51297
256 1 38.1955 15.6202 0.0381477 38.1955 15.6202 0.0381477
257 2 39.8399 15.527 1.81079 39.8399 15.527 1.81079
258 2 40.1823 15.7137 -1.43595 40.1823 15.7137 -1.43595
259 1 41.0645 13.9828 0.205393 41.0645 13.9828 0.205393
260 2 42.9364 13.8332 1.749 42.9364 13.8332 1.749
261 2 43.026 13.9257 -1.42897 43.026 13.9257 -1.42897
262 1 43.954 15.5703 0.119925 43.954 15.5703 0.119925
263 2 46.0078 15.767 1.62018 46.0078 15.767 1.62018
264 2 45.747 15.5621 -1.60728 45.747 15.5621 -1.60728
265 1 46.7389 13.9914 0.00481039 46.7389 13.9914 0.00481039
266 2 48.6288 14.1105 1.61999 48.6288 14.1105 1.61999
267 2 48.6024 13.9962 -1.73359 48.6024 13.9962 -1.73359
268 1 49.5465 15.6972 -0.164474 49.5465 15.6972 -0.164474
269 2 51.3965 15.5568 1.5835 51.3965 15.5568 1.5835
270 2 51.46 15.7769 -1.73012 51.46 15.7769 -1.73012
271 1 1.00626 17.4113 -0.021367 1.00626 17.4113 -0.021367
272 2 3.19141 17.306 1.39433 3.19141 17.306 1.39433
273 2 2.73989 17.4385 -1.85969 2.73989 17.4385 -1.85969
274 1 3.90284 19.0793 -0.310184 3.90284 19.0793 -0.310184
275 2 5.90507 18.9616 1.18124 5.90507 18.9616 1.18124
276 2 5.60247 18.9882 -2.10714 5.60247 18.9882 -2.10714
277 1 6.75271 17.3251 -0.627406 6.75271 17.3251 -0.627406
278 2 8.7391 17.1559 1.05417 8.7391 17.1559 1.05417
279 2 8.78358 17.4304 -2.16821 8.78358 17.4304 -2.16821
280 1 9.53174 19.0205 -0.473724 9.53174 19.0205 -0.473724
281 2 11.5456 19.0839 1.0027 11.5456 19.0839 1.0027
282 2 11.3504 18.9353 -2.13759 11.3504 18.9353 -2.13759
283 1 12.4536 17.3278 -0.573969 12.4536 17.3278 -0.573969
284 2 14.2676 17.3631 1.25583 14.2676 17.3631 1.25583
285 2 14.4237 17.3635 -1.96987 14.4237 17.3635 -1.96987
286 1 15.3006 19.0188 -0.345997 15.3006 19.0188 -0.345997
287 2 17.1202 18.9703 1.3241 17.1202 18.9703 1.3241
288 2 17.3027 19.0202 -1.91926 17.3027 19.0202 -1.91926
289 1 18.2039 17.3092 -0.275262 18.2039 17.3092 -0.275262
290 2 19.9846 17.45 1.41535 19.9846 17.45 1.41535
291 2 20.1622 17.1822 -1.79709 20.1622 17.1822 -1.79709
292 1 21.0672 18.9494 -0.306274 21.0672 18.9494 -0.306274
293 2 22.9713 19.0387 1.41256 22.9713 19.0387 1.41256
294 2 23.0223 18.9881 -1.87838 23.0223 18.9881 -1.87838
295 1 23.9488 17.3282 -0.185046 23.9488 17.3282 -0.185046
296 2 25.8882 17.2285 1.29952 25.8882 17.2285 1.29952
297 2 25.7326 17.3891 -2.00273 25.7326 17.3891 -2.00273
298 1 26.6886 19.0749 -0.32584 26.6886 19.0749 -0.32584
299 2 28.6821 19.0987 1.17924 28.6821 19.0987 1.17924
300 2 28.536 18.8257 -2.10101 28.536 18.8257 -2.10101
301 1 29.6073 17.3349 -0.37832 29.6073 17.3349 -0.37832
302 2 31.5353 17.3687 1.24274 31.5353 17.3687 1.24274
303 2 31.6459 17.1854 -1.94115 31.6459 17.1854 -1.94115
304 1 32.5329 18.995 -0.461902 32.5329 18.995 -0.461902
305 2 34.2659 19.1717 1.3915 34.2659 19.1717 1.3915
306 2 34.5262 18.8238 -1.89379 34.5262 18.8238 -1.89379
307 1 35.353 17.2342 0.0579945 35.353 17.2342 0.0579945
308 2 37.2705 17.2401 1.66604 37.2705 17.2401 1.66604
309 2 37.1919 17.2547 -1.60995 37.1919 17.2547 -1.60995
310 1 38.1459 18.9905 -0.0846444 38.1459 18.9905 -0.0846444
311 2 39.7829 19.0409 1.70589 39.7829 19.0409 1.70589
312 2 40.1226 18.861 -1.43049 40.1226 18.861 -1.43049
313 1 40.9937 17.3726 0.314329 40.9937 17.3726 0.314329
314 2 43.0253 17.1534 1.75791 43.0253 17.1534 1.75791
315 2 42.9336 17.2877 -1.39134 42.9336 17.2877 -1.39134
316 1 43.8423 18.9448 0.163396 43.8423 18.9448 0.163396
317 2 45.8997 18.9299 1.57952 45.8997 18.9299 1.57952
318 2 45.5804 19.1551 -1.56174 45.5804 19.1551 -1.56174
319 1 46.6803 17.3243 -0.186667 46.6803 17.3243 -0.186667
320 2 48.5968 17.54 1.47556 48.5968 17.54 1.47556
321 2 48.6574 17.3715 -1.82844 48.6574 17.3715 -1.82844
322 1 49.4998 19.1684 -0.157894 49.4998 19.1684 -0.157894
323 2 51.3801 19.0448 1.52312 51.3801 19.0448 1.52312
324 2 51.531 19.0264 -1.74846 51.531 19.0264 -1.74846
325 1 0.977444 20.6837 -0.15313 0.977444 20.6837 -0.15313
326 2 3.04678 20.6685 1.36718 3.04678 20.6685 1.36718
327 2 2.88589 20.7921 -1.88473 2.88589 20.7921 -1.88473
328 1 3.83535 22.4867 -0.22951 3.83535 22.4867 -0.22951
329 2 5.88155 22.328 1.27176 5.88155 22.328 1.27176
330 2 5.55156 22.3451 -2.04364 5.55156 22.3451 -2.04364
331 1 6.64356 20.7585 -0.534173 6.64356 20.7585 -0.534173
332 2 8.52665 20.7732 1.12162 8.52665 20.7732 1.12162
333 2 8.56137 20.5843 -2.10815 8.56137 20.5843 -2.10815
334 1 9.48747 22.3887 -0.551838 9.48747 22.3887 -0.551838
335 2 11.5387 22.3999 1.06056 11.5387 22.3999 1.06056
336 2 11.4036 22.4668 -2.24012 11.4036 22.4668 -2.24012
337 1 12.4448 20.7438 -0.632882 12.4448 20.7438 -0.632882
338 2 14.3187 20.6386 1.21174 14.3187 20.6386 1.21174
339 2 14.3749 20.5728 -2.13439 14.3749 20.5728 -2.13439
340 1 15.2982 22.3645 -0.368775 15.2982 22.3645 -0.368775
341 2 17.1764 22.5976 1.35697 17.1764 22.5976 1.35697
342 2 17.2596 22.3066 -1.97911 17.2596 22.3066 -1.97911
343 1 18.2612 20.7357 -0.135144 18.2612 20.7357 -0.135144
344 2 20.165 20.7108 1.43743 20.165 20.7108 1.43743
345 2 20.0283 20.7594 -1.85145 20.0283 20.7594 -1.85145
346 1 20.9941 22.3704 -0.153394 20.9941 22.3704 -0.153394
347 2 23.0299 22.343 1.41262 23.0299 22.343 1.41262
348 2 22.7312 22.4048 -1.86294 22.7312 22.4048 -1.86294
349 1 23.8945 20.7214 -0.330696 23.8945 20.7214 -0.330696
350 2 25.8175 20.8101 1.36141 25.8175 20.8101 1.36141
351 2 25.6744 20.6656 -1.98153 25.6744 20.6656 -1.98153
352 1 26.7697 22.3575 -0.398757 26.7697 22.3575 -0.398757
353 2 28.8483 22.5042 0.909922 28.8483 22.5042 0.909922
354 2 28.5107 22.2428 -2.21012 28.5107 22.2428 -2.21012
355 1 29.6314 20.6666 -0.610054 29.6314 20.6666 -0.610054
356 2 31.5275 20.7707 1.00123 31.5275 20.7707 1.00123
357 2 31.493 20.5234 -2.23931 31.493 20.5234 -2.23931
358 1 32.4704 22.2793 -0.719506 32.4704 22.2793 -0.719506
359 2 34.1951 22.5246 1.17368 34.1951 22.5246 1.17368
360 2 34.4814 22.226 -2.2164 34.4814 22.226 -2.2164
361 1 35.3576 20.71 -0.446633 35.3576 20.71 -0.446633
362 2 37.0993 20.7049 1.40489 37.0993 20.7049 1.40489
363 2 37.4321 20.6008 -1.80548 37.4321 20.6008 -1.80548
364 1 38.0989 22.432 -0.157993 38.0989 22.432 -0.157993
365 2 40.016 22.6529 1.47234 40.016 22.6529 1.47234
366 2 40.0837 22.0888 -1.67013 40.0837 22.0888 -1.67013
367 1 40.9009 20.6385 0.223969 40.9009 20.6385 0.223969
368 2 42.975 20.8579 1.72166 42.975 20.8579 1.72166
369 2 42.7555 20.4522 -1.50582 42.7555 20.4522 -1.50582
370 1 43.8021 22.3736 -0.0726388 43.8021 22.3736 -0.0726388
371 2 45.7652 22.4647 1.53341 45.7652 22.4647 1.53341
372 2 45.7376 22.356 -1.69799 45.7376 22.356 -1.69799
373 1 46.5755 20.7172 0.0166986 46.5755 20.7172 0.0166986
374 2 48.645 20.7843 1.54123 48.645 20.7843 1.54123
375 2 48.4302 20.77 -1.72885 48.4302 20.77 -1.72885
376 1 49.6033 22.4137 -0.0533807 49.6033 22.4137 -0.0533807
377 2 51.666 22.345 1.51941 51.666 22.345 1.51941
378 2 51.4788 22.5198 -1.70562 51.4788 22.5198 -1.70562
379 1 1.05765 24.0131 -0.0362842 1.05765 24.0131 -0.0362842
380 2 3.03645 24.2033 1.36447 3.03645 24.2033 1.36447
381 2 2.67765 23.9904 -1.85965 2.67765 23.9904 -1.85965
382 1 3.8134 25.7803 -0.3998 3.8134 25.7803 -0.3998
383 2 5.69647 25.9053 1.27209 5.69647 25.9053 1.27209
384 2 5.8366 25.7596 -2.03433 5.8366 25.7596 -2.03433
385 1 6.56642 24.0864 -0.313843 6.56642 24.0864 -0.313843
386 2 8.60982 23.8949 1.26769 8.60982 23.8949 1.26769
387 2 8.44749 24.0869 -2.0372 8.44749 24.0869 -2.0372
388 1 9.53766 25.7236 -0.348959 9.53766 25.7236 -0.348959
389 2 11.5483 25.7677 1.13192 11.5483 25.7677 1.13192
390 2 11.3401 25.8432 -2.0571 11.3401 25.8432 -2.0571
391 1 12.3891 24.0561 -0.636659 12.3891 24.0561 -0.636659
392 2 14.2844 24.2494 1.09557 14.2844 24.2494 1.09557
393 2 14.4311 23.8828 -2.12544 14.4311 23.8828 -2.12544
394 1 15.2276 25.7473 -0.615774 15.2276 25.7473 -0.615774
395 2 17.1706 26.0129 1.05422 17.1706 26.0129 1.05422
396 2 17.2664 25.7187 -2.1385 17.2664 25.7187 -2.1385
397 1 18.1399 24.122 -0.431508 18.1399 24.122 -0.431508
398 2 19.9445 24.0639 1.33002 19.9445 24.0639 1.33002
399 2 20.1283 24.0036 -1.95767 20.1283 24.0036 -1.95767
400 1 20.9693 25.6749 -0.278695 20.9693 25.6749 -0.278695
401 2 23.002 25.8621 1.32456 23.002 25.8621 1.32456
402 2 22.8207 25.5342 -1.94412 22.8207 25.5342 -1.94412
403 1 23.9018 23.9959 -0.276404 23.9018 23.9959 -0.276404
404 2 25.9924 24.0848 1.1537 25.9924 24.0848 1.1537
405 2 25.7262 23.8635 -2.01354 25.7262 23.8635 -2.01354
406 1 26.7242 25.7381 -0.69741 26.7242 25.7381 -0.69741
407 2 28.6996 25.5566 0.910619 28.6996 25.5566 0.910619
408 2 28.5889 25.8241 -2.37552 28.5889 25.8241 -2.37552
409 1 29.5296 24.0003 -0.899169 29.5296 24.0003 -0.899169
410 2 31.3252 24.0312 0.773974 31.3252 24.0312 0.773974
411 2 31.4949 23.9463 -2.48785 31.4949 23.9463 -2.48785
412 1 32.3812 25.5963 -0.798037 32.3812 25.5963 -0.798037
413 2 34.3188 25.7555 0.855137 34.3188 25.7555 0.855137
414 2 34.3318 25.5335 -2.26865 34.3318 25.5335 -2.26865
415 1 35.3523 24.0968 -0.529872 35.3523 24.0968 -0.529872
416 2 37.1493 24.3861 1.12502 37.1493 24.3861 1.12502
417 2 37.3449 23.9167 -2.09109 37.3449 23.9167 -2.09109
418 1 38.2379 25.8778 -0.645457 38.2379 25.8778 -0.645457
419 2 40.0483 25.7166 1.08292 40.0483 25.7166 1.08292
420 2 40.2035 25.6583 -2.09731 40.2035 25.6583 -2.09731
421 1 41.0603 24.0114 -0.412201 41.0603 24.0114 -0.412201
422 2 42.7517 24.252 1.337 42.7517 24.252 1.337
423 2 43.1024 23.9596 -1.99794 43.1024 23.9596 -1.99794
424 1 43.912 25.7223 -0.378902 43.912 25.7223 -0.378902
425 2 45.5521 25.5544 1.3631 45.5521 25.5544 1.3631
426 2 45.9162 25.721 -1.87667 45.9162 25.721 -1.87667
427 1 46.7001 23.9914 -0.147318 46.7001 23.9914 -0.147318
428 2 48.5027 24.1697 1.47264 48.5027 24.1697 1.47264
429 2 48.7162 24.0336 -1.78615 48.7162 24.0336 -1.78615
430 1 49.5191 25.7776 -0.203891 49.5191 25.7776 -0.203891
431 2 51.3324 25.8738 1.51745 51.3324 25.8738 1.51745
432 2 51.5457 25.6151 -1.81137 51.5457 25.6151 -1.81137
433 1 0.938408 27.4478 -0.270622 0.938408 27.4478 -0.270622
434 2 2.9734 27.7064 1.10418 2.9734 27.7064 1.10418
435 2 2.72977 27.3768 -2.06106 2.72977 27.3768 -2.06106
436 1 3.89493 29.1079 -0.76875 3.89493 29.1079 -0.76875
437 2 5.63375 29.2816 0.983343 5.63375 29.2816 0.983343
438 2 5.90789 29.1635 -2.26287 5.90789 29.1635 -2.26287
439 1 6.69123 27.5225 -0.463105 6.69123 27.5225 -0.463105
440 2 8.59068 27.4677 1.23938 8.59068 27.4677 1.23938
441 2 8.68126 27.4123 -2.07869 8.68126 27.4123 -2.07869
442 1 9.62909 29.0265 -0.533269 9.62909 29.0265 -0.533269
443 2 11.6095 29.1907 1.05557 11.6095 29.1907 1.05557
444 2 11.5183 29.044 -2.30508 11.5183 29.044 -2.30508
445 1 12.4537 27.4388 -0.592823 12.4537 27.4388 -0.592823
446 2 14.2945 27.3709 1.07506 14.2945 27.3709 1.07506
447 2 14.2924 27.4331 -2.26282 14.2924 27.4331 -2.26282
448 1 15.2279 29.0703 -0.590767 15.2279 29.0703 -0.590767
449 2 17.2005 29.0421 1.02847 17.2005 29.0421 1.02847
450 2 17.0296 29.1419 -2.20578 17.0296 29.1419 -2.20578
451 1 18.1336 27.4867 -0.612335 18.1336 27.4867 -0.612335
452 2 19.8997 27.4966 1.2452 19.8997 27.4966 1.2452
453 2 20.2542 27.2727 -2.08228 20.2542 27.2727 -2.08228
454 1 20.9099 29.0469 -0.394656 20.9099 29.0469 -0.394656
455 2 22.7551 28.8623 1.27937 22.7551 28.8623 1.27937
456 2 22.8515 29.0176 -2.03895 22.8515 29.0176 -2.03895
457 1 23.8721 27.3325 -0.486557 23.8721 27.3325 -0.486557
458 2 25.7988 27.2768 1.1268 25.7988 27.2768 1.1268
459 2 25.7446 27.423 -2.16116 25.7446 27.423 -2.16116
460 1 26.7424 28.9935 -0.422384 26.7424 28.9935 -0.422384
461 2 28.6998 28.9206 1.13118 28.6998 28.9206 1.13118
462 2 28.5914 29.1449 -2.00565 28.5914 29.1449 -2.00565
463 1 29.6285 27.2829 -0.652409 29.6285 27.2829 -0.652409
464 2 31.6008 27.1999 0.973385 31.6008 27.1999 0.973385
465 2 31.5624 27.4426 -2.24438 31.5624 27.4426 -2.24438
466 1 32.5036 29.1317 -0.565238 32.5036 29.1317 -0.565238
467 2 34.3563 28.916 1.0781 34.3563 28.916 1.0781
468 2 34.4591 29.2374 -2.20688 34.4591 29.2374 -2.20688
469 1 35.2991 27.4029 -0.741107 35.2991 27.4029 -0.741107
470 2 37.0005 27.34 0.996984 37.0005 27.34 0.996984
471 2 37.2389 27.6313 -2.23871 37.2389 27.6313 -2.23871
472 1 38.1643 29.0961 -0.400265 38.1643 29.0961 -0.400265
473 2 40.0471 28.9442 1.12554 40.0471 28.9442 1.12554
474 2 39.9371 29.0473 -2.0363 39.9371 29.0473 -2.0363
475 1 41.0662 27.3602 -0.541638 41.0662 27.3602 -0.541638
476 2 42.9716 27.3584 1.19668 42.9716 27.3584 1.19668
477 2 42.9758 27.2901 -2.05365 42.9758 27.2901 -2.05365
478 1 43.8463 29.1189 -0.313572 43.8463 29.1189 -0.313572
479 2 45.642 29.2309 1.40559 45.642 29.2309 1.40559
480 2 45.796 29.0308 -1.8311 45.796 29.0308 -1.8311
481 1 46.6397 27.3819 -0.101103 46.6397 27.3819 -0.101103
482 2 48.5541 27.3874 1.49813 48.5541 27.3874 1.49813
483 2 48.5348 27.4205 -1.76233 48.5348 27.4205 -1.76233
484 1 49.5127 29.1324 -0.114117 49.5127 29.1324 -0.114117
485 2 51.7025 29.3463 1.25827 51.7025 29.3463 1.25827
486 2 51.2174 29.0877 -1.99915 51.2174 29.0877 -1.99915
487 1 1.04151 30.8382 -0.839967 1.04151 30.8382 -0.839967
488 2 2.89321 30.7549 0.811712 2.89321 30.7549 0.811712
489 2 2.87677 30.6726 -2.49784 2.87677 30.6726 -2.49784
490 1 3.8405 32.4317 -0.865233 3.8405 32.4317 -0.865233
491 2 5.70757 32.6373 0.857251 5.70757 32.6373 0.857251
492 2 5.75119 32.3736 -2.46822 5.75119 32.3736 -2.46822
493 1 6.74535 30.8207 -0.65068 6.74535 30.8207 -0.65068
494 2 8.64037 30.8459 1.03043 8.64037 30.8459 1.03043
495 2 8.64575 30.699 -2.27391 8.64575 30.699 -2.27391
496 1 9.5719 32.4287 -0.671321 9.5719 32.4287 -0.671321
497 2 11.4073 32.3962 0.947198 11.4073 32.3962 0.947198
498 2 11.4855 32.4019 -2.25346 11.4855 32.4019 -2.25346
499 1 12.458 30.7412 -0.629602 12.458 30.7412 -0.629602
500 2 14.2646 30.6659 1.03402 14.2646 30.6659 1.03402
501 2 14.2488 30.7977 -2.15667 14.2488 30.7977 -2.15667
502 1 15.1762 32.4373 -0.432658 15.1762 32.4373 -0.432658
503 2 17.2151 32.4633 1.08272 17.2151 32.4633 1.08272
504 2 17.0035 32.3975 -2.10247 17.0035 32.3975 -2.10247
505 1 18.0961 30.7695 -0.519753 18.0961 30.7695 -0.519753
506 2 19.9055 30.6693 1.18852 19.9055 30.6693 1.18852
507 2 20.1027 30.787 -2.06953 20.1027 30.787 -2.06953
508 1 20.8907 32.3608 -0.366194 20.8907 32.3608 -0.366194
509 2 22.766 32.3561 1.31502 22.766 32.3561 1.31502
510 2 22.8984 32.3653 -1.95346 22.8984 32.3653 -1.95346
511 1 23.7729 30.691 -0.256705 23.7729 30.691 -0.256705
512 2 25.7206 30.483 1.30958 25.7206 30.483 1.30958
513 2 25.6943 30.7072 -1.92097 25.6943 30.7072 -1.92097
514 1 26.6615 32.3104 -0.311723 26.6615 32.3104 -0.311723
515 2 28.6202 32.4467 1.28272 28.6202 32.4467 1.28272
516 2 28.5956 32.3522 -1.93668 28.5956 32.3522 -1.93668
517 1 29.6589 30.7149 -0.304936 29.6589 30.7149 -0.304936
518 2 31.572 30.5102 1.23424 31.572 30.5102 1.23424
519 2 31.4182 31.0178 -2.06173 31.4182 31.0178 -2.06173
520 1 32.312 32.4538 -0.263026 32.312 32.4538 -0.263026
521 2 34.2508 32.4234 1.40275 34.2508 32.4234 1.40275
522 2 34.3542 32.5157 -1.79742 34.3542 32.5157 -1.79742
523 1 35.2787 30.7211 -0.279685 35.2787 30.7211 -0.279685
524 2 37.1771 30.7487 1.25409 37.1771 30.7487 1.25409
525 2 37.1245 30.7412 -2.00391 37.1245 30.7412 -2.00391
526 1 38.1239 32.4862 -0.308191 38.1239 32.4862 -0.308191
527 2 40.059 32.4835 1.29341 40.059 32.4835 1.29341
528 2 40.0414 32.5378 -1.89644 40.0414 32.5378 -1.89644
529 1 40.9244 30.8126 -0.381645 40.9244 30.8126 -0.381645
530 2 42.8824 30.7369 1.25046 42.8824 30.7369 1.25046
531 2 42.7368 30.691 -2.00089 42.7368 30.691 -2.00089
532 1 43.8149 32.4587 -0.379668 43.8149 32.4587 -0.379668
533 2 45.7331 32.4529 1.29025 45.7331 32.4529 1.29025
534 2 45.6369 32.4817 -2.00362 45.6369 32.4817 -2.00362
535 1 46.6512 30.7524 -0.272079 46.6512 30.7524 -0.272079
536 2 48.5535 30.9976 1.40167 48.5535 30.9976 1.40167
537 2 48.417 30.6606 -1.87286 48.417 30.6606 -1.87286
538 1 49.4959 32.4839 -0.414412 49.4959 32.4839 -0.414412