ITEM: TIMESTEP
4994000
ITEM: NUMBER OF ATOMS
810
ITEM: BOX BOUNDS pp pp pp
8.0341777045796159e-01 5.2214187229542503e+01
-1.1530502367597451e+01 6.2546717367596322e+01
-1.0000000000000000e+01 1.0000000000000000e+01
ITEM: ATOMS id type x y z xu yu zu
1 1 1.00625 61.6134 0.643159 1.00625 -12.4638 0.643159
2 2 2.85827 60.3452 1.91161 2.85827 -13.732 1.91161
3 2 2.96344 62.5423 -0.550744 2.96344 -11.5349 -0.550744
4 1 3.88424 -11.445 1.83982 3.88424 -11.445 1.83982
5 2 5.78696 61.7165 3.14508 5.78696 -12.3607 3.14508
6 2 5.85114 -10.2993 0.634461 5.85114 -10.2993 0.634461
7 1 6.67761 61.317 0.819442 6.67761 -12.7602 0.819442
8 2 8.20382 60.1379 2.42847 8.20382 -13.9393 2.42847
9 2 8.76941 61.9136 -0.191437 8.76941 -12.1636 -0.191437
10 1 9.46956 62.3854 2.20843 9.46956 -11.6918 2.20843
11 2 11.2649 61.308 3.58483 11.2649 -12.7692 3.58483
12 2 11.5398 -10.8339 1.06038 11.5398 -10.8339 1.06038
13 1 12.2848 60.9318 1.34914 12.2848 -13.1454 1.34914
14 2 14.0598 59.7907 2.69037 14.0598 -14.2865 2.69037
15 2 14.3541 61.8528 0.144866 14.3541 -12.2244 0.144866
16 1 15.1993 62.0722 2.53014 15.1993 -12.005 2.53014
17 2 17.1447 60.9924 3.84765 17.1447 -13.0849 3.84765
18 2 17.1145 -10.7897 1.29116 17.1145 -10.7897 1.29116
19 1 18.0203 60.9131 1.44368 18.0203 -13.1642 1.44368
20 2 19.8658 59.9869 2.79088 19.8658 -14.0903 2.79088
21 2 19.9447 61.6978 0.0526666 19.9447 -12.3794 0.0526666
22 1 20.9211 62.2889 2.34812 20.9211 -11.7883 2.34812
23 2 23.0096 61.3058 3.68083 23.0096 -12.7714 3.68083
24 2 22.8156 -10.87 1.11812 22.8156 -10.87 1.11812
25 1 23.8231 60.9769 1.30008 23.8231 -13.1003 1.30008
26 2 25.8312 60.2014 2.63478 25.8312 -13.8758 2.63478
27 2 25.6766 61.9727 -0.0699302 25.6766 -12.1045 -0.0699302
28 1 26.6267 -11.6455 2.24116 26.6267 -11.6455 2.24116
29 2 28.8799 61.6607 3.41936 28.8799 -12.4165 3.41936
30 2 28.4771 -10.5113 0.789969 28.4771 -10.5113 0.789969
31 1 29.5386 61.3484 1.06424 29.5386 -12.7288 1.06424
32 2 31.557 60.4776 2.11299 31.557 -13.5997 2.11299
33 2 31.1682 62.5159 -0.362795 31.1682 -11.5613 -0.362795
34 1 32.3503 -11.2716 1.89269 32.3503 -11.2716 1.89269
35 2 34.2728 61.9045 3.2127 34.2728 -12.1727 3.2127
36 2 34.1128 -10.206 0.4783 34.1128 -10.206 0.4783
37 1 35.1306 61.5575 0.86689 35.1306 -12.5198 0.86689
38 2 37.2569 60.7098 1.96465 37.2569 -13.3674 1.96465
39 2 36.8004 -11.4165 -0.569592 36.8004 -11.4165 -0.569592
40 1 38.0887 -11.0213 1.56931 38.0887 -11.0213 1.56931
41 2 40.1517 62.1497 2.63405 40.1517 -11.9275 2.63405
42 2 39.9835 -9.86575 0.190725 39.9835 -9.86575 0.190725
43 1 41.0463 61.9492 0.317709 41.0463 -12.128 0.317709
44 2 42.92 60.8474 1.65894 42.92 -13.2299 1.65894
45 2 43.0003 -11.2373 -0.960161 43.0003 -11.2373 -0.960161
46 1 43.926 -10.9862 1.32819 43.926 -10.9862 1.32819
47 2 45.7672 61.9713 2.66316 45.7672 -12.106 2.66316
48 2 45.8984 -10.0731 0.158866 45.8984 -10.0731 0.158866
49 1 46.8001 61.6294 0.402403 46.8001 -12.4478 0.402403
50 2 48.4308 60.6425 1.84626 48.4308 -13.4347 1.84626
51 2 48.8692 -11.4472 -0.736638 48.8692 -11.4472 -0.736638
52 1 49.5454 -11.2074 1.60086 49.5454 -11.2074 1.60086
53 2 51.3385 61.8224 2.90962 51.3385 -12.2548 2.90962
54 2 51.5383 -10.2081 0.479261 51.5383 -10.2081 0.479261
55 1 1.05301 -10.0131 2.78008 1.05301 -10.0131 2.78008
56 2 2.9357 -11.1011 4.22658 2.9357 -11.1011 4.22658
57 2 3.00281 -9.09272 1.54129 3.00281 -9.09272 1.54129
58 1 3.88012 -8.74355 3.94548 3.88012 -8.74355 3.94548
59 2 5.83488 -9.62647 5.24067 5.83488 -9.62647 5.24067
60 2 5.84388 -7.70902 2.59991 5.84388 -7.70902 2.59991
61 1 6.73293 -10.1235 2.95142 6.73293 -10.1235 2.95142
62 2 8.5706 -11.0258 4.43202 8.5706 -11.0258 4.43202
63 2 8.8079 -9.30335 1.71891 8.8079 -9.30335 1.71891
64 1 9.6913 -8.80496 4.04635 9.6913 -8.80496 4.04635
65 2 11.3268 -9.80264 5.67772 11.3268 -9.80264 5.67772
66 2 11.7352 -8.14828 2.74932 11.7352 -8.14828 2.74932
67 1 12.3922 -10.4751 3.3718 12.3922 -10.4751 3.3718
68 2 14.1427 -11.4652 4.77269 14.1427 -11.4652 4.77269
69 2 14.3726 -9.63284 2.2848 14.3726 -9.63284 2.2848
70 1 15.2839 -9.27703 4.54719 15.2839 -9.27703 4.54719
71 2 17.1199 -10.3337 5.82997 17.1199 -10.3337 5.82997
72 2 17.2095 -8.37142 3.19693 17.2095 -8.37142 3.19693
73 1 18.0706 -10.7509 3.53958 18.0706 -10.7509 3.53958
74 2 20.1605 -11.5979 4.78397 20.1605 -11.5979 4.78397
75 2 19.9969 -9.5339 2.17722 19.9969 -9.5339 2.17722
76 1 20.9872 -9.19976 4.4442 20.9872 -9.19976 4.4442
77 2 23.0036 -10.1057 5.61977 23.0036 -10.1057 5.61977
78 2 22.8229 -8.12069 2.99387 22.8229 -8.12069 2.99387
79 1 23.8587 -10.4236 3.29792 23.8587 -10.4236 3.29792
80 2 25.8509 -11.0553 4.48366 25.8509 -11.0553 4.48366
81 2 25.5655 -9.56478 1.59219 25.5655 -9.56478 1.59219
82 1 26.652 -8.70866 3.76045 26.652 -8.70866 3.76045
83 2 28.4885 -9.63353 5.17936 28.4885 -9.63353 5.17936
84 2 28.639 -7.6378 2.58766 28.639 -7.6378 2.58766
85 1 29.4884 -10.0327 2.9918 29.4884 -10.0327 2.9918
86 2 31.573 -10.7881 4.23094 31.573 -10.7881 4.23094
87 2 31.2164 -9.07436 1.44558 31.2164 -9.07436 1.44558
88 1 32.2569 -8.38722 3.65455 32.2569 -8.38722 3.65455
89 2 34.1502 -9.50851 4.97302 34.1502 -9.50851 4.97302
90 2 34.3123 -7.44219 2.35933 34.3123 -7.44219 2.35933
91 1 35.2056 -9.77601 2.68273 35.2056 -9.77601 2.68273
92 2 37.1956 -10.7236 3.84804 37.1956 -10.7236 3.84804
93 2 37.0184 -8.77699 1.32445 37.0184 -8.77699 1.32445
94 1 38.0501 -8.45606 3.53197 38.0501 -8.45606 3.53197
95 2 40.1001 -9.36336 4.73293 40.1001 -9.36336 4.73293
96 2 39.9934 -7.40611 2.05869 39.9934 -7.40611 2.05869
97 1 41.0364 -9.63557 2.4192 41.0364 -9.63557 2.4192
98 2 43.0332 -10.6465 3.68979 43.0332 -10.6465 3.68979
99 2 42.9226 -8.6935 1.08516 42.9226 -8.6935 1.08516
100 1 43.8643 -8.32418 3.46085 43.8643 -8.32418 3.46085
101 2 45.7242 -9.22249 4.82585 45.7242 -9.22249 4.82585
102 2 45.8136 -7.45113 2.0105 45.8136 -7.45113 2.0105
103 1 46.7712 -9.76211 2.4884 46.7712 -9.76211 2.4884
104 2 48.6142 -10.7036 3.86286 48.6142 -10.7036 3.86286
105 2 48.6945 -8.98785 1.07507 48.6945 -8.98785 1.07507
106 1 49.5746 -8.46231 3.43241 49.5746 -8.46231 3.43241
107 2 51.2053 -9.53107 4.96247 51.2053 -9.53107 4.96247
108 2 51.6814 -7.61467 2.29737 51.6814 -7.61467 2.29737
109 1 0.909755 -7.36877 4.70215 0.909755 -7.36877 4.70215
110 2 2.67588 -8.28138 6.12003 2.67588 -8.28138 6.12003
111 2 3.00738 -6.45171 3.44592 3.00738 -6.45171 3.44592
112 1 3.83548 -6.08872 5.72 3.83548 -6.08872 5.72
113 2 5.7396 -7.02648 7.11149 5.7396 -7.02648 7.11149
114 2 5.85689 -5.12907 4.53994 5.85689 -5.12907 4.53994
115 1 6.82405 -7.50267 4.87397 6.82405 -7.50267 4.87397
116 2 8.6086 -8.3469 6.29849 8.6086 -8.3469 6.29849
117 2 8.747 -6.57526 3.53689 8.747 -6.57526 3.53689
118 1 9.50315 -6.06007 5.81035 9.50315 -6.06007 5.81035
119 2 11.2236 -7.05947 7.33176 11.2236 -7.05947 7.33176
120 2 11.5897 -5.25688 4.61173 11.5897 -5.25688 4.61173
121 1 12.4151 -7.61282 5.19976 12.4151 -7.61282 5.19976
122 2 14.1547 -8.54157 6.71426 14.1547 -8.54157 6.71426
123 2 14.452 -6.90411 3.85047 14.452 -6.90411 3.85047
124 1 15.2818 -6.38041 6.1286 15.2818 -6.38041 6.1286
125 2 17.0579 -7.32219 7.55989 17.0579 -7.32219 7.55989
126 2 17.3464 -5.63566 4.8282 17.3464 -5.63566 4.8282
127 1 18.1096 -7.97659 5.36056 18.1096 -7.97659 5.36056
128 2 20.0913 -8.7207 6.71778 20.0913 -8.7207 6.71778
129 2 19.9563 -6.93932 3.97251 19.9563 -6.93932 3.97251
130 1 21.019 -6.39587 6.25717 21.019 -6.39587 6.25717
131 2 22.9906 -7.32352 7.49822 22.9906 -7.32352 7.49822
132 2 22.8224 -5.46265 4.85582 22.8224 -5.46265 4.85582
133 1 23.8454 -7.69263 5.15561 23.8454 -7.69263 5.15561
134 2 26.0541 -8.53401 6.21211 26.0541 -8.53401 6.21211
135 2 25.4475 -6.4918 3.63899 25.4475 -6.4918 3.63899
136 1 26.6898 -6.11828 5.91208 26.6898 -6.11828 5.91208
137 2 28.6931 -6.98231 7.19878 28.6931 -6.98231 7.19878
138 2 28.5005 -5.03631 4.60345 28.5005 -5.03631 4.60345
139 1 29.4909 -7.35316 4.93308 29.4909 -7.35316 4.93308
140 2 31.6216 -8.39651 6.05999 31.6216 -8.39651 6.05999
141 2 31.3129 -6.0698 3.61576 31.3129 -6.0698 3.61576
142 1 32.3521 -5.99552 5.94512 32.3521 -5.99552 5.94512
143 2 34.4504 -6.93583 7.0872 34.4504 -6.93583 7.0872
144 2 34.1132 -4.9846 4.5058 34.1132 -4.9846 4.5058
145 1 35.2561 -7.16451 4.66476 35.2561 -7.16451 4.66476
146 2 37.2627 -8.29702 5.93278 37.2627 -8.29702 5.93278
147 2 37.0947 -6.16871 3.41521 37.0947 -6.16871 3.41521
148 1 38.1056 -5.90238 5.68083 38.1056 -5.90238 5.68083
149 2 40.2174 -6.55547 6.75474 40.2174 -6.55547 6.75474
150 2 39.7103 -4.84773 4.00411 39.7103 -4.84773 4.00411
151 1 41.0167 -6.94036 4.33979 41.0167 -6.94036 4.33979
152 2 42.8917 -7.87963 5.82769 42.8917 -7.87963 5.82769
153 2 42.8966 -5.96884 3.11896 42.8966 -5.96884 3.11896
154 1 43.9199 -5.65609 5.38245 43.9199 -5.65609 5.38245
155 2 45.8925 -6.54214 6.60656 45.8925 -6.54214 6.60656
156 2 45.7402 -4.5614 3.87058 45.7402 -4.5614 3.87058
157 1 46.6907 -6.95964 4.29324 46.6907 -6.95964 4.29324
158 2 48.5714 -7.84171 5.64546 48.5714 -7.84171 5.64546
159 2 48.6157 -6.19074 2.9641 48.6157 -6.19074 2.9641
160 1 49.6253 -5.59171 5.25616 49.6253 -5.59171 5.25616
161 2 51.1532 -6.71181 6.89304 51.1532 -6.71181 6.89304
162 2 51.7347 -4.95528 4.11791 51.7347 -4.95528 4.11791
163 1 1.0697 -4.55631 6.59835 1.0697 -4.55631 6.59835
164 2 2.83264 -5.71599 7.94291 2.83264 -5.71599 7.94291
165 2 3.12737 -3.73668 5.43358 3.12737 -3.73668 5.43358
166 1 3.88399 -3.48956 7.77227 3.88399 -3.48956 7.77227
167 2 5.74428 -4.48935 8.9988 5.74428 -4.48935 8.9988
168 2 5.74588 -2.41485 6.53249 5.74588 -2.41485 6.53249
169 1 6.67597 -4.66608 6.77755 6.67597 -4.66608 6.77755
170 2 8.52794 -5.71821 8.07643 8.52794 -5.71821 8.07643
171 2 8.59896 -3.79001 5.3905 8.59896 -3.79001 5.3905
172 1 9.55242 -3.34622 7.6504 9.55242 -3.34622 7.6504
173 2 11.2405 -4.54773 9.21101 11.2405 -4.54773 9.21101
174 2 11.68 -2.5967 6.56756 11.68 -2.5967 6.56756
175 1 12.4039 -4.9082 6.97263 12.4039 -4.9082 6.97263
176 2 14.2002 -5.84863 8.35832 14.2002 -5.84863 8.35832
177 2 14.3574 -4.10482 5.61551 14.3574 -4.10482 5.61551
178 1 15.2304 -3.58158 7.87974 15.2304 -3.58158 7.87974
179 2 17.0254 -4.43431 9.30944 17.0254 -4.43431 9.30944
180 2 17.2193 -2.59991 6.66409 17.2193 -2.59991 6.66409
181 1 18.1861 -5.01907 7.10838 18.1861 -5.01907 7.10838
182 2 20.0788 -5.84924 8.56951 20.0788 -5.84924 8.56951
183 2 20.102 -4.1754 5.74721 20.102 -4.1754 5.74721
184 1 20.9955 -3.63449 7.99997 20.9955 -3.63449 7.99997
185 2 22.952 -4.34319 9.39316 22.952 -4.34319 9.39316
186 2 22.9239 -2.7272 6.56198 22.9239 -2.7272 6.56198
187 1 23.8005 -5.02193 7.13169 23.8005 -5.02193 7.13169
188 2 25.896 -5.86831 8.2142 25.896 -5.86831 8.2142
189 2 25.3821 -3.92832 5.70051 25.3821 -3.92832 5.70051
190 1 26.6005 -3.3971 7.87699 26.6005 -3.3971 7.87699
191 2 28.6187 -4.28947 9.18235 28.6187 -4.28947 9.18235
192 2 28.3854 -2.45012 6.43372 28.3854 -2.45012 6.43372
193 1 29.5644 -4.62373 6.85628 29.5644 -4.62373 6.85628
194 2 31.4012 -5.54782 8.21777 31.4012 -5.54782 8.21777
195 2 31.517 -3.69016 5.53551 31.517 -3.69016 5.53551
196 1 32.3855 -3.31079 7.77002 32.3855 -3.31079 7.77002
197 2 34.3648 -4.135 8.96519 34.3648 -4.135 8.96519
198 2 34.2074 -2.39884 6.25057 34.2074 -2.39884 6.25057
199 1 35.2452 -4.6226 6.64702 35.2452 -4.6226 6.64702
200 2 37.2247 -5.37542 7.98864 37.2247 -5.37542 7.98864
201 2 37.0795 -3.70359 5.20636 37.0795 -3.70359 5.20636
202 1 38.0591 -3.05014 7.37589 38.0591 -3.05014 7.37589
203 2 40.2531 -3.6881 8.48358 40.2531 -3.6881 8.48358
204 2 39.8404 -1.92111 5.89483 39.8404 -1.92111 5.89483
205 1 40.9476 -4.17037 6.19103 40.9476 -4.17037 6.19103
206 2 42.8774 -5.07925 7.66288 42.8774 -5.07925 7.66288
207 2 42.9626 -3.36368 4.88855 42.9626 -3.36368 4.88855
208 1 43.8197 -2.87671 7.20256 43.8197 -2.87671 7.20256
209 2 45.7377 -3.83633 8.50881 45.7377 -3.83633 8.50881
210 2 45.7727 -1.97608 5.87105 45.7727 -1.97608 5.87105
211 1 46.7336 -4.21149 6.22594 46.7336 -4.21149 6.22594
212 2 48.6157 -5.19394 7.51996 48.6157 -5.19394 7.51996
213 2 48.659 -3.37071 4.81756 48.659 -3.37071 4.81756
214 1 49.6319 -3.00506 7.20639 49.6319 -3.00506 7.20639
215 2 51.2264 -4.02542 8.74556 51.2264 -4.02542 8.74556
216 2 51.7345 -2.2509 5.98999 51.7345 -2.2509 5.98999
217 1 1.01826 -1.78 8.44164 1.01826 -1.78 8.44164
218 2 2.56055 -2.90243 9.95793 2.56055 -2.90243 9.95793
219 2 3.16043 -1.09463 7.35145 3.16043 -1.09463 7.35145
220 1 3.84813 -0.864821 9.79038 3.84813 -0.864821 9.79038
221 2 5.62801 -1.91947 -8.79738 5.62801 -1.91947 11.2026
222 2 5.812 0.199571 8.65 5.812 0.199571 8.65
223 1 6.70867 -2.18356 8.87753 6.70867 -2.18356 8.87753
224 2 8.65693 -3.33816 -9.99802 8.65693 -3.33816 10.002
225 2 8.60922 -1.16279 7.63753 8.60922 -1.16279 7.63753
226 1 9.50832 -0.969873 9.93683 9.50832 -0.969873 9.93683
227 2 11.3877 -1.98088 -8.73875 11.3877 -1.98088 11.2613
228 2 11.4167 -0.150906 8.65955 11.4167 -0.150906 8.65955
229 1 12.4578 -2.3648 8.97502 12.4578 -2.3648 8.97502
230 2 14.3708 -3.35311 -9.82158 14.3708 -3.35311 10.1784
231 2 14.2971 -1.14841 7.6687 14.2971 -1.14841 7.6687
232 1 15.2216 -1.02429 -10.0657 15.2216 -1.02429 9.93433
233 2 17.0958 -2.21877 -8.76844 17.0958 -2.21877 11.2316
234 2 17.1415 0.0781652 8.85924 17.1415 0.0781652 8.85924
235 1 18.1465 -2.25568 8.90297 18.1465 -2.25568 8.90297
236 2 20.1101 -3.12324 -9.74046 20.1101 -3.12324 10.2595
237 2 20.0212 -1.3292 7.45087 20.0212 -1.3292 7.45087
238 1 20.9135 -0.720624 9.68476 20.9135 -0.720624 9.68476
239 2 22.7972 -1.6089 -8.88813 22.7972 -1.6089 11.1119
240 2 22.7759 0.107756 8.37599 22.7759 0.107756 8.37599
241 1 23.7779 -2.08368 8.81484 23.7779 -2.08368 8.81484
242 2 25.6557 -2.96762 -9.8806 25.6557 -2.96762 10.1194
243 2 25.7209 -1.12534 7.4198 25.7209 -1.12534 7.4198
244 1 26.6774 -0.655708 9.57635 26.6774 -0.655708 9.57635
245 2 28.6087 -1.48457 -9.11205 28.6087 -1.48457 10.8879
246 2 28.6643 0.278797 8.22543 28.6643 0.278797 8.22543
247 1 29.518 -1.96454 8.73313 29.518 -1.96454 8.73313
248 2 31.4031 -2.90826 10.0539 31.4031 -2.90826 10.0539
249 2 31.4788 -1.12493 7.32755 31.4788 -1.12493 7.32755
250 1 32.3928 -0.600776 9.65002 32.3928 -0.600776 9.65002
251 2 34.3813 -1.37735 -9.05285 34.3813 -1.37735 10.9471
252 2 34.184 0.341173 8.12267 34.184 0.341173 8.12267
253 1 35.2577 -1.85335 8.53659 35.2577 -1.85335 8.53659
254 2 37.2878 -2.65456 9.73219 37.2878 -2.65456 9.73219
255 2 37.0072 -0.897898 7.00783 37.0072 -0.897898 7.00783
256 1 38.075 -0.322164 9.22149 38.075 -0.322164 9.22149
257 2 40.0345 -1.45414 -9.68736 40.0345 -1.45414 10.3126
258 2 41.6109 0.751254 9.091 41.6109 0.751254 9.091
259 1 40.9761 -1.3775 7.96755 40.9761 -1.3775 7.96755
260 2 42.7821 -2.36491 9.44246 42.7821 -2.36491 9.44246
261 2 43.0235 -0.636948 6.6551 43.0235 -0.636948 6.6551
262 1 43.8896 -0.165818 9.02505 43.8896 -0.165818 9.02505
263 2 45.5633 -1.43049 -9.59956 45.5633 -1.43049 10.4004
264 2 45.9225 0.76329 7.96929 45.9225 0.76329 7.96929
265 1 46.8271 -1.57077 8.19104 46.8271 -1.57077 8.19104
266 2 48.6356 -2.59427 9.47991 48.6356 -2.59427 9.47991
267 2 48.8353 -0.657725 6.8692 48.8353 -0.657725 6.8692
268 1 49.6807 -0.316797 9.18347 49.6807 -0.316797 9.18347
269 2 51.4028 -1.37588 -9.35056 51.4028 -1.37588 10.6494
270 2 51.7137 0.54506 8.04788 51.7137 0.54506 8.04788
271 1 1.00013 0.898901 -9.63812 1.00013 0.898901 10.3619
272 2 2.54329 -0.350108 -8.18123 2.54329 -0.350108 11.8188
273 2 3.12359 1.47954 9.28111 3.12359 1.47954 9.28111
274 1 3.77682 1.79544 -8.28882 3.77682 1.79544 11.7112
275 2 5.52766 0.844395 -6.77595 5.52766 0.844395 13.2241
276 2 5.87123 2.70754 -9.42049 5.87123 2.70754 10.5795
277 1 6.64373 0.348559 -8.9474 6.64373 0.348559 11.0526
278 2 8.52807 -0.831241 -7.77453 8.52807 -0.831241 12.2255
279 2 8.54049 1.41408 9.86992 8.54049 1.41408 9.86992
280 1 9.45431 1.45395 -7.87515 9.45431 1.45395 12.1249
281 2 11.4141 0.453394 -6.72923 11.4141 0.453394 13.2708
282 2 11.2343 2.42407 -9.25839 11.2343 2.42407 10.7416
283 1 12.3905 0.320343 -9.07795 12.3905 0.320343 10.922
284 2 14.1833 -0.900012 -7.78574 14.1833 -0.900012 12.2143
285 2 14.4053 1.35034 9.86779 14.4053 1.35034 9.86779
286 1 15.172 1.38212 -7.68522 15.172 1.38212 12.3148
287 2 17.0578 0.118249 -6.53176 17.0578 0.118249 13.4682
288 2 17.0805 2.50881 -8.86798 17.0805 2.50881 11.132
289 1 18.0515 0.188988 -8.7541 18.0515 0.188988 11.2459
290 2 20.2955 -0.599316 -7.9283 20.2955 -0.599316 12.0717
291 2 19.6426 1.49102 9.75117 19.6426 1.49102 9.75117
292 1 20.8342 1.75258 -8.08621 20.8342 1.75258 11.9138
293 2 23.0182 1.1251 -6.96813 23.0182 1.1251 13.0319
294 2 22.5717 2.79537 -9.72881 22.5717 2.79537 10.2712
295 1 23.8 0.677475 -9.34522 23.8 0.677475 10.6548
296 2 25.7455 -0.310953 -8.10768 25.7455 -0.310953 11.8923
297 2 25.6174 1.6336 9.31286 25.6174 1.6336 9.31286
298 1 26.6925 1.96801 -8.43497 26.6925 1.96801 11.565
299 2 28.7059 1.12621 -7.20645 28.7059 1.12621 12.7935
300 2 28.4525 3.06911 -9.84716 28.4525 3.06911 10.1528
301 1 29.5339 0.80648 -9.5326 29.5339 0.80648 10.4674
302 2 31.3687 -0.227415 -8.07599 31.3687 -0.227415 11.924
303 2 31.446 1.57457 9.07009 31.446 1.57457 9.07009
304 1 32.4071 2.05537 -8.46726 32.4071 2.05537 11.5327
305 2 34.3197 0.94896 -7.20689 34.3197 0.94896 12.7931
306 2 34.334 3.14808 -9.38487 34.334 3.14808 10.6151
307 1 35.2328 0.88965 -9.59751 35.2328 0.88965 10.4025
308 2 37.0948 -0.3433 -8.41349 37.0948 -0.3433 11.5865
309 2 37.3273 1.97133 9.54016 37.3273 1.97133 9.54016
310 1 38.5908 34.4428 5.47891 38.5908 34.4428 -14.5211
311 2 39.4212 32.0466 5.37449 39.4212 32.0466 -14.6255
312 2 40.7285 35.4098 4.89367 40.7285 35.4098 -15.1063
313 1 41.5567 33.1854 4.67489 41.5567 33.1854 -15.3251
314 2 41.6561 32.6051 7.0575 41.6561 32.6051 -12.9425
315 2 43.4347 31.6079 5.00355 43.4347 31.6079 -14.9964
316 1 44.0009 33.0185 6.93636 44.0009 33.0185 -13.0636
317 2 46.0317 31.734 7.40811 46.0317 31.734 -12.5919
318 2 45.6814 33.3161 5.17151 45.6814 33.3161 -14.8285
319 1 46.767 0.801616 -9.60142 46.767 0.801616 10.3986
320 2 48.7753 -0.215483 -8.51284 48.7753 -0.215483 11.4872
321 2 48.6336 1.88847 9.10685 48.6336 1.88847 9.10685
322 1 49.5633 2.12357 -8.56301 49.5633 2.12357 11.437
323 2 51.5565 1.25477 -7.40366 51.5565 1.25477 12.5963
324 2 51.2703 3.08221 -9.99274 51.2703 3.08221 10.0073
325 1 0.873062 3.57701 -7.74629 0.873062 3.57701 12.2537
326 2 2.74311 2.81757 -6.21673 2.74311 2.81757 13.7833
327 2 2.88269 3.96562 -9.29165 2.88269 3.96562 10.7084
328 1 3.85183 4.94462 -7.08385 3.85183 4.94462 12.9162
329 2 5.39805 4.03916 -5.21123 5.39805 4.03916 14.7888
330 2 6.14133 5.4436 -8.05412 6.14133 5.4436 11.9459
331 1 6.64523 3.11466 -7.11586 6.64523 3.11466 12.8841
332 2 8.34603 1.90752 -5.60247 8.34603 1.90752 14.3975
333 2 8.83943 3.83147 -8.23778 8.83943 3.83147 11.7622
334 1 9.41515 4.21499 -5.72244 9.41515 4.21499 14.2776
335 2 11.4474 2.93297 -4.70922 11.4474 2.93297 15.2908
336 2 11.2549 5.17255 -7.24615 11.2549 5.17255 12.7538
337 1 12.2584 2.85407 -7.07603 12.2584 2.85407 12.924
338 2 14.0221 1.84847 -5.48293 14.0221 1.84847 14.5171
339 2 14.3979 3.70723 -8.29803 14.3979 3.70723 11.702
340 1 15.065 4.12428 -5.93616 15.065 4.12428 14.0638
341 2 16.4305 3.06796 -4.14398 16.4305 3.06796 15.856
342 2 17.309 4.9242 -6.65431 17.309 4.9242 13.3457
343 1 18.0441 2.51856 -6.26774 18.0441 2.51856 13.7323
344 2 20.3752 1.62122 -5.70653 20.3752 1.62122 14.2935
345 2 19.5369 3.84187 -7.83542 19.5369 3.84187 12.1646
346 1 20.8762 4.09455 -5.68369 20.8762 4.09455 14.3163
347 2 23.1603 3.43282 -5.04971 23.1603 3.43282 14.9503
348 2 22.0834 5.61953 -7.26471 22.0834 5.61953 12.7353
349 1 23.6712 3.55142 -7.59657 23.6712 3.55142 12.4034
350 2 25.6322 2.51435 -6.24345 25.6322 2.51435 13.7566
351 2 25.7892 4.25777 -8.97979 25.7892 4.25777 11.0202
352 1 26.6018 4.73528 -6.514 26.6018 4.73528 13.486
353 2 28.3326 3.45179 -5.35452 28.3326 3.45179 14.6455
354 2 28.6948 5.76167 -7.68094 28.6948 5.76167 12.3191
355 1 29.5171 3.44841 -7.64895 29.5171 3.44841 12.351
356 2 31.6133 3.07839 -6.31722 31.6133 3.07839 13.6828
357 2 31.2805 4.15101 -9.32929 31.2805 4.15101 10.6707
358 1 33.018 37.1733 7.36544 33.018 37.1733 -12.6346
359 2 36.4835 35.7179 8.71216 36.4835 35.7179 -11.2878
360 2 35.0806 38.1843 6.56575 35.0806 38.1843 -13.4342
361 1 35.6885 35.8381 6.35087 35.6885 35.8381 -13.6491
362 2 39.1477 34.1823 7.86343 39.1477 34.1823 -12.1366
363 2 37.841 36.8346 5.65777 37.841 36.8346 -14.3422
364 1 38.7374 36.6603 8.01538 38.7374 36.6603 -11.9846
365 2 40.6414 35.7168 9.64023 40.6414 35.7168 -10.3598
366 2 40.8554 37.4366 6.69192 40.8554 37.4366 -13.3081
367 1 41.5034 35.038 7.28479 41.5034 35.038 -12.7152
368 2 43.1799 34.3174 8.87295 43.1799 34.3174 -11.1271
369 2 43.4414 34.9446 5.60995 43.4414 34.9446 -14.3901
370 1 44.4648 36.0412 7.76936 44.4648 36.0412 -12.2306
371 2 46.1288 35.0628 9.28015 46.1288 35.0628 -10.7199
372 2 46.5452 36.2766 6.33495 46.5452 36.2766 -13.665
373 1 47.0702 33.9376 7.26232 47.0702 33.9376 -12.7377
374 2 48.8979 33.141 8.67305 48.8979 33.141 -11.3269
375 2 49.6496 37.5323 7.07374 49.6496 37.5323 -12.9263
376 1 50.1091 35.1339 7.74034 50.1091 35.1339 -12.2597
377 2 48.8323 34.5242 5.68362 48.8323 34.5242 -14.3164
378 2 52.2279 35.6622 6.61933 52.2279 35.6622 -13.3807
379 1 50.9168 37.8362 9.31316 -0.493981 37.8362 -10.6868
380 2 0.851744 37.9429 -8.53345 0.851744 37.9429 -8.53345
381 2 1.6164 37.7448 8.09492 1.6164 37.7448 -11.9051
382 1 2.76554 38.8426 10.2225 2.76554 38.8426 -9.77753
383 2 4.71703 38.4054 -8.15511 4.71703 38.4054 -8.15511
384 2 3.23522 36.4315 -9.68948 3.23522 36.4315 -9.68948
385 1 6.48292 6.24562 -5.71283 6.48292 6.24562 14.2872
386 2 7.82587 5.16897 -3.89603 7.82587 5.16897 16.104
387 2 8.76643 6.48724 -6.58459 8.76643 6.48724 13.4154
388 1 9.23637 7.20812 -4.28603 9.23637 7.20812 15.714
389 2 10.4545 5.15091 -3.37523 10.4545 5.15091 16.6248
390 2 11.3048 7.77079 -5.72266 11.3048 7.77079 14.2773
391 1 12.3445 5.61744 -4.88268 12.3445 5.61744 15.1173
392 2 15.0268 5.77693 -4.05318 15.0268 5.77693 15.9468
393 2 13.9307 6.17805 -6.71453 13.9307 6.17805 13.2855
394 1 14.9939 39.2789 9.17402 14.9939 39.2789 -10.826
395 2 17.0925 38.4279 -9.48422 17.0925 38.4279 -9.48422
396 2 16.1806 41.2309 8.39212 16.1806 41.2309 -11.6079
397 1 17.6424 5.17302 -4.25771 17.6424 5.17302 15.7423
398 2 19.2032 3.19915 -3.92958 19.2032 3.19915 16.0704
399 2 21.2421 6.04072 -4.17149 21.2421 6.04072 15.8285
400 1 21.1331 39.2094 9.49351 21.1331 39.2094 -10.5065
401 2 22.318 39.5348 -8.35924 22.318 39.5348 -8.35924
402 2 23.2023 39.9517 8.25516 23.2023 39.9517 -11.7448
403 1 23.5405 5.88585 -5.10832 23.5405 5.88585 14.8917
404 2 25.6508 4.79304 -4.13561 25.6508 4.79304 15.8644
405 2 24.7237 6.10134 -7.28867 24.7237 6.10134 12.7113
406 1 27.2932 39.4074 9.39399 27.2932 39.4074 -10.606
407 2 31.0483 38.4052 -9.35265 31.0483 38.4052 -9.35265
408 2 29.2453 40.4439 8.39554 29.2453 40.4439 -11.6045
409 1 30.2393 38.2956 8.34637 30.2393 38.2956 -11.6536
410 2 33.8357 37.2049 9.71584 33.8357 37.2049 -10.2842
411 2 32.1727 39.434 7.48331 32.1727 39.434 -12.5167
412 1 33.1908 39.5594 9.88719 33.1908 39.5594 -10.1128
413 2 35.4586 39.1511 -8.74173 35.4586 39.1511 -8.74173
414 2 34.9295 40.4339 8.24236 34.9295 40.4339 -11.7576
415 1 36.0264 38.1862 8.90629 36.0264 38.1862 -11.0937
416 2 38.0282 37.341 -9.60792 38.0282 37.341 -9.60792
417 2 38.0614 39.0487 7.55297 38.0614 39.0487 -12.447
418 1 39.0586 39.617 9.77024 39.0586 39.617 -10.2298
419 2 40.8576 38.5236 -8.90588 40.8576 38.5236 -8.90588
420 2 41.0764 40.1273 8.29007 41.0764 40.1273 -11.7099
421 1 41.763 37.8571 8.878 41.763 37.8571 -11.122
422 2 43.7885 36.7845 -9.93529 43.7885 36.7845 -9.93529
423 2 43.6505 38.3491 7.2566 43.6505 38.3491 -12.7434
424 1 44.8737 38.969 9.4077 44.8737 38.969 -10.5923
425 2 46.8782 37.8362 -9.16634 46.8782 37.8362 -9.16634
426 2 46.9639 39.3864 7.908 46.9639 39.3864 -12.092
427 1 47.5928 37.0282 8.55038 47.5928 37.0282 -11.4496
428 2 49.2769 35.9486 -9.979 49.2769 35.9486 -9.979
429 2 51.9757 35.5114 9.37596 51.9757 35.5114 -10.624
430 1 48.1775 39.8472 10.1061 48.1775 39.8472 -9.89386
431 2 49.6966 38.475 -8.47282 49.6966 38.475 -8.47282
432 2 50.409 40.2153 8.78874 50.409 40.2153 -11.2113
433 1 51.3382 40.4767 -8.75999 -0.072541 40.4767 -8.75999
434 2 2.32157 40.0978 -7.53009 2.32157 40.0978 -7.53009
435 2 1.71716 41.0712 9.44929 1.71716 41.0712 -10.5507
436 1 3.08582 42.0602 -8.72313 3.08582 42.0602 -8.72313
437 2 5.01499 41.2913 -7.20211 5.01499 41.2913 -7.20211
438 2 5.16099 42.5189 9.88004 5.16099 42.5189 -10.12
439 1 5.93887 40.3784 -9.20773 5.93887 40.3784 -9.20773
440 2 7.90244 39.9776 -7.68004 7.90244 39.9776 -7.68004
441 2 9.90282 39.8023 9.77542 9.90282 39.8023 -10.2246
442 1 9.20905 41.8439 -8.86863 9.20905 41.8439 -8.86863
443 2 11.1206 41.3312 -7.29036 11.1206 41.3312 -7.29036
444 2 11.2981 42.5618 9.8302 11.2981 42.5618 -10.1698
445 1 12.1925 40.4373 -9.31111 12.1925 40.4373 -9.31111
446 2 14.5162 39.9804 -8.48419 14.5162 39.9804 -8.48419
447 2 13.5895 41.3298 8.78206 13.5895 41.3298 -11.2179
448 1 15.2151 42.3124 -9.39849 15.2151 42.3124 -9.39849
449 2 16.9786 41.2697 -7.89983 16.9786 41.2697 -7.89983
450 2 17.4331 43.2093 9.60824 17.4331 43.2093 -10.3918
451 1 18.1618 40.7663 9.94609 18.1618 40.7663 -10.0539
452 2 19.657 39.7881 -8.36205 19.657 39.7881 -8.36205
453 2 20.4321 41.4696 8.99663 20.4321 41.4696 -11.0034
454 1 21.217 41.8851 -8.59069 21.217 41.8851 -8.59069
455 2 23.527 41.63 -7.29164 23.527 41.63 -7.29164
456 2 23.0521 42.5447 9.67195 23.0521 42.5447 -10.328
457 1 24.2214 40.5457 -9.57729 24.2214 40.5457 -9.57729
458 2 28.0812 39.724 -8.36043 28.0812 39.724 -8.36043
459 2 26.1842 41.6891 9.26244 26.1842 41.6891 -10.7376
460 1 27.172 42.0963 -8.57074 27.172 42.0963 -8.57074
461 2 29.2361 41.7188 -7.08674 29.2361 41.7188 -7.08674
462 2 29.0716 42.9507 9.88466 29.0716 42.9507 -10.1153
463 1 30.1971 40.7179 -9.35684 30.1971 40.7179 -9.35684
464 2 32.3701 40.4235 -7.83383 32.3701 40.4235 -7.83383
465 2 31.9292 41.8169 9.19882 31.9292 41.8169 -10.8012
466 1 33.0909 42.5937 -8.82215 33.0909 42.5937 -8.82215
467 2 35.1446 42.3018 -7.51602 35.1446 42.3018 -7.51602
468 2 34.8574 43.1982 9.42461 34.8574 43.1982 -10.5754
469 1 36.1832 41.3071 -9.64661 36.1832 41.3071 -9.64661
470 2 38.3702 40.7039 -8.11247 38.3702 40.7039 -8.11247
471 2 38.2164 41.7901 8.86537 38.2164 41.7901 -11.1346
472 1 39.4732 42.8205 -9.12968 39.4732 42.8205 -9.12968
473 2 41.327 41.7944 -7.56671 41.327 41.7944 -7.56671
474 2 41.4116 42.8227 9.26034 41.4116 42.8227 -10.7397
475 1 42.1461 40.5323 -9.56345 42.1461 40.5323 -9.56345
476 2 43.9447 39.1376 -8.30752 43.9447 39.1376 -8.30752
477 2 44.2567 41.6815 9.40643 44.2567 41.6815 -10.5936
478 1 41.3128 45.4944 9.48705 41.3128 45.4944 -10.5129
479 2 44.9432 42.9516 -7.12993 44.9432 42.9516 -7.12993
480 2 43.8114 44.7099 9.5253 43.8114 44.7099 -10.4747
481 1 45.6172 41.1868 -8.5481 45.6172 41.1868 -8.5481
482 2 47.7376 40.4413 -7.55428 47.7376 40.4413 -7.55428
483 2 47.0105 42.3579 9.69241 47.0105 42.3579 -10.3076
484 1 48.7594 42.5063 -8.53073 48.7594 42.5063 -8.53073
485 2 50.5516 41.9284 -6.82973 50.5516 41.9284 -6.82973
486 2 50.7927 42.7286 -9.9945 50.7927 42.7286 -9.9945
487 1 51.828 43.7951 -7.95403 0.417265 43.7951 -7.95403
488 2 2.33129 42.9886 -6.55357 2.33129 42.9886 -6.55357
489 2 2.39612 44.2552 -9.54535 2.39612 44.2552 -9.54535
490 1 3.40753 45.1462 -7.4125 3.40753 45.1462 -7.4125
491 2 5.32369 44.4571 -5.94373 5.32369 44.4571 -5.94373
492 2 5.30776 45.6017 -8.88855 5.30776 45.6017 -8.88855
493 1 6.2609 43.5024 -8.07904 6.2609 43.5024 -8.07904
494 2 8.19928 42.6502 -6.53161 8.19928 42.6502 -6.53161
495 2 8.35333 44.058 -9.65598 8.35333 44.058 -9.65598
496 1 9.29436 44.8109 -7.45625 9.29436 44.8109 -7.45625
497 2 11.3987 44.2814 -5.94583 11.3987 44.2814 -5.94583
498 2 11.1883 45.4771 -8.90474 11.1883 45.4771 -8.90474
499 1 12.2859 43.4241 -8.10606 12.2859 43.4241 -8.10606
500 2 14.4387 42.6221 -6.9337 14.4387 42.6221 -6.9337
501 2 14.0829 44.5986 -9.62128 14.0829 44.5986 -9.62128
502 1 15.327 45.096 -7.4661 15.327 45.096 -7.4661
503 2 17.1004 44.3769 -5.79775 17.1004 44.3769 -5.79775
504 2 17.3105 45.7771 -8.8194 17.3105 45.7771 -8.8194
505 1 18.1956 43.5016 -8.04246 18.1956 43.5016 -8.04246
506 2 20.121 42.7907 -6.36526 20.121 42.7907 -6.36526
507 2 20.2921 44.1519 -9.36738 20.2921 44.1519 -9.36738
508 1 21.1837 44.93 -7.1721 21.1837 44.93 -7.1721
509 2 23.3409 44.2897 -6.04997 23.3409 44.2897 -6.04997
510 2 22.9148 45.8824 -8.82675 22.9148 45.8824 -8.82675
511 1 24.2107 43.6825 -8.4135 24.2107 43.6825 -8.4135
512 2 25.9412 42.9147 -6.61401 25.9412 42.9147 -6.61401
513 2 26.4525 44.3633 -9.44517 26.4525 44.3633 -9.44517
514 1 26.9833 45.0957 -7.12782 26.9833 45.0957 -7.12782
515 2 29.0508 44.7148 -5.79316 29.0508 44.7148 -5.79316
516 2 28.8023 45.932 -8.89881 28.8023 45.932 -8.89881
517 1 30.0439 43.8491 -7.9757 30.0439 43.8491 -7.9757
518 2 32.0797 43.1185 -6.6231 32.0797 43.1185 -6.6231
519 2 31.901 44.7816 -9.39819 31.901 44.7816 -9.39819
520 1 32.8704 45.4894 -7.16627 32.8704 45.4894 -7.16627
521 2 35.1255 44.8611 -6.22458 35.1255 44.8611 -6.22458
522 2 34.3034 46.5719 -8.99187 34.3034 46.5719 -8.99187
523 1 35.78 44.3307 -8.61611 35.78 44.3307 -8.61611
524 2 38.0263 44.0751 -7.34844 38.0263 44.0751 -7.34844
525 2 36.6632 45.9683 9.60709 36.6632 45.9683 -10.3929
526 1 38.4556 46.057 -8.69612 38.4556 46.057 -8.69612
527 2 41.1103 45.1471 -8.15547 41.1103 45.1471 -8.15547
528 2 38.8696 44.601 9.16255 38.8696 44.601 -10.8374
529 1 42.9872 43.2837 -8.70833 42.9872 43.2837 -8.70833
530 2 39.3962 46.478 -6.45592 39.3962 46.478 -6.45592
531 2 39.9006 47.4743 9.78391 39.9006 47.4743 -10.2161
532 1 43.6271 46.4277 -8.6219 43.6271 46.4277 -8.6219
533 2 45.2652 45.6676 -6.86252 45.2652 45.6676 -6.86252
534 2 45.8204 46.7002 -9.93526 45.8204 46.7002 -9.93526
535 1 46.2543 44.5351 -8.8491 46.2543 44.5351 -8.8491
536 2 47.7302 43.9349 -6.78172 47.7302 43.9349 -6.78172
537 2 48.4058 44.7559 -9.87676 48.4058 44.7559 -9.87676
538 1 49.2108 45.6849 -7.74196 49.2108 45.6849 -7.74196
539 2 50.8164 44.9384 -6.01008 50.8164 44.9384 -6.01008
540 2 51.3009 45.9788 -9.0468 51.3009 45.9788 -9.0468