ITEM: TIMESTEP
2086000
ITEM: NUMBER OF ATOMS
810
ITEM: BOX BOUNDS pp pp pp
8.0341777045796159e-01 5.2214187229542503e+01
-4.3470771645181037e+00 5.5363292164516970e+01
-1.0000000000000000e+01 1.0000000000000000e+01
ITEM: ATOMS id type x y z xu yu zu
1 1 0.955729 -4.11079 -0.178159 0.955729 -4.11079 -0.178159
2 2 2.88233 -4.1086 1.41145 2.88233 -4.1086 1.41145
3 2 2.83751 -4.11858 -1.85961 2.83751 -4.11858 -1.85961
4 1 3.851 -2.04845 -0.246464 3.851 -2.04845 -0.246464
5 2 5.62153 -2.21243 1.53102 5.62153 -2.21243 1.53102
6 2 5.96261 -2.09289 -1.57221 5.96261 -2.09289 -1.57221
7 1 6.71253 -4.14175 0.0998424 6.71253 -4.14175 0.0998424
8 2 8.72706 -4.21897 1.49445 8.72706 -4.21897 1.49445
9 2 8.47778 -4.03332 -1.66999 8.47778 -4.03332 -1.66999
10 1 9.64079 -2.28339 -0.117194 9.64079 -2.28339 -0.117194
11 2 11.6885 -2.32653 1.4691 11.6885 -2.32653 1.4691
12 2 11.5484 -2.14389 -1.74751 11.5484 -2.14389 -1.74751
13 1 12.5146 -4.3472 -0.267013 12.5146 -4.3472 -0.267013
14 2 14.2613 -4.19004 1.62739 14.2613 -4.19004 1.62739
15 2 14.5873 -4.13726 -1.48975 14.5873 -4.13726 -1.48975
16 1 15.2868 -2.20185 0.144548 15.2868 -2.20185 0.144548
17 2 17.3427 -2.10577 1.85211 17.3427 -2.10577 1.85211
18 2 17.1715 -2.49876 -1.42996 17.1715 -2.49876 -1.42996
19 1 18.118 -4.0819 0.358755 18.118 -4.0819 0.358755
20 2 20.3007 -4.12734 1.78604 20.3007 -4.12734 1.78604
21 2 19.8928 -4.13608 -1.4123 19.8928 -4.13608 -1.4123
22 1 20.9908 -2.26694 0.0226427 20.9908 -2.26694 0.0226427
23 2 23.0095 -2.21568 1.60702 23.0095 -2.21568 1.60702
24 2 22.7488 -2.28332 -1.69175 22.7488 -2.28332 -1.69175
25 1 23.8552 -4.12697 -0.129613 23.8552 -4.12697 -0.129613
26 2 25.9244 -4.1025 1.35767 25.9244 -4.1025 1.35767
27 2 25.7433 -3.97569 -1.84219 25.7433 -3.97569 -1.84219
28 1 26.6468 -2.04783 -0.302387 26.6468 -2.04783 -0.302387
29 2 28.7224 -1.95973 1.24944 28.7224 -1.95973 1.24944
30 2 28.5547 -2.13629 -1.96072 28.5547 -2.13629 -1.96072
31 1 29.5021 -4.02349 -0.307535 29.5021 -4.02349 -0.307535
32 2 31.5318 -4.1615 1.16758 31.5318 -4.1615 1.16758
33 2 31.3844 -4.14012 -2.1558 31.3844 -4.14012 -2.1558
34 1 32.2834 -2.0522 -0.394549 32.2834 -2.0522 -0.394549
35 2 34.3475 -1.87171 1.06443 34.3475 -1.87171 1.06443
36 2 34.1591 -2.1483 -2.02596 34.1591 -2.1483 -2.02596
37 1 35.1652 -4.1435 -0.270677 35.1652 -4.1435 -0.270677
38 2 37.2571 -3.85469 1.09604 37.2571 -3.85469 1.09604
39 2 36.9187 55.6124 -2.06796 36.9187 -4.09798 -2.06796
40 1 38.0143 -1.95649 -0.758979 38.0143 -1.95649 -0.758979
41 2 39.6948 -1.88999 1.06892 39.6948 -1.88999 1.06892
42 2 40.1993 -2.16786 -2.05959 40.1993 -2.16786 -2.05959
43 1 40.9069 -4.12062 -0.346498 40.9069 -4.12062 -0.346498
44 2 43.0279 -4.26339 0.97378 43.0279 -4.26339 0.97378
45 2 42.6273 -4.07592 -2.20604 42.6273 -4.07592 -2.20604
46 1 43.9144 -2.0926 -0.710223 43.9144 -2.0926 -0.710223
47 2 45.5975 -1.96747 1.09956 45.5975 -1.96747 1.09956
48 2 46.0081 -2.25246 -2.03206 46.0081 -2.25246 -2.03206
49 1 46.6636 -4.10567 -0.279778 46.6636 -4.10567 -0.279778
50 2 48.5176 -3.80543 1.43666 48.5176 -3.80543 1.43666
51 2 48.6582 -4.25423 -1.77716 48.6582 -4.25423 -1.77716
52 1 49.6167 -2.09181 -0.323466 49.6167 -2.09181 -0.323466
53 2 51.3019 -2.19095 1.36144 51.3019 -2.19095 1.36144
54 2 51.7646 -1.9663 -1.80401 51.7646 -1.9663 -1.80401
55 1 1.05607 -0.00667517 -0.191833 1.05607 -0.00667517 -0.191833
56 2 3.09616 -0.137891 1.35445 3.09616 -0.137891 1.35445
57 2 2.88103 0.0251673 -1.87531 2.88103 0.0251673 -1.87531
58 1 3.89946 1.93534 -0.288438 3.89946 1.93534 -0.288438
59 2 5.67733 2.0435 1.51276 5.67733 2.0435 1.51276
60 2 6.01143 1.85211 -1.66383 6.01143 1.85211 -1.66383
61 1 6.78067 -0.112536 0.0783589 6.78067 -0.112536 0.0783589
62 2 8.85216 -0.314314 1.54684 8.85216 -0.314314 1.54684
63 2 8.72628 0.0535757 -1.59694 8.72628 0.0535757 -1.59694
64 1 9.59822 2.00545 0.127377 9.59822 2.00545 0.127377
65 2 11.7289 1.99663 1.68707 11.7289 1.99663 1.68707
66 2 11.3804 1.94388 -1.64424 11.3804 1.94388 -1.64424
67 1 12.3969 -0.143356 -0.107642 12.3969 -0.143356 -0.107642
68 2 14.3425 -0.121151 1.58654 14.3425 -0.121151 1.58654
69 2 14.5304 -0.3223 -1.59243 14.5304 -0.3223 -1.59243
70 1 15.254 1.87229 -0.125135 15.254 1.87229 -0.125135
71 2 17.1561 1.81661 1.49031 17.1561 1.81661 1.49031
72 2 17.2283 1.60304 -1.7093 17.2283 1.60304 -1.7093
73 1 18.1019 -0.301693 0.0803723 18.1019 -0.301693 0.0803723
74 2 20.1412 -0.0191052 1.54112 20.1412 -0.0191052 1.54112
75 2 20.0556 -0.501551 -1.52967 20.0556 -0.501551 -1.52967
76 1 20.9276 1.65367 -0.172792 20.9276 1.65367 -0.172792
77 2 22.7893 1.8315 1.40645 22.7893 1.8315 1.40645
78 2 22.8662 1.58105 -1.83843 22.8662 1.58105 -1.83843
79 1 23.7319 -0.274685 -0.120634 23.7319 -0.274685 -0.120634
80 2 25.7561 -0.122531 1.39587 25.7561 -0.122531 1.39587
81 2 25.5502 -0.21505 -1.882 25.5502 -0.21505 -1.882
82 1 26.5843 1.79992 -0.308398 26.5843 1.79992 -0.308398
83 2 28.7085 1.90111 1.25429 28.7085 1.90111 1.25429
84 2 28.4554 1.85942 -2.06684 28.4554 1.85942 -2.06684
85 1 29.4826 -0.0908466 -0.47619 29.4826 -0.0908466 -0.47619
86 2 31.4334 -0.0314627 1.11494 31.4334 -0.0314627 1.11494
87 2 31.3162 -0.236836 -2.05597 31.3162 -0.236836 -2.05597
88 1 32.3192 1.87389 -0.58749 32.3192 1.87389 -0.58749
89 2 34.346 1.99258 0.98229 34.346 1.99258 0.98229
90 2 34.2547 1.93196 -2.15908 34.2547 1.93196 -2.15908
91 1 35.2311 -0.0337915 -0.722326 35.2311 -0.0337915 -0.722326
92 2 37.0877 -0.123538 0.973191 37.0877 -0.123538 0.973191
93 2 37.2475 0.190731 -2.28323 37.2475 0.190731 -2.28323
94 1 38.0577 1.96186 -0.588627 38.0577 1.96186 -0.588627
95 2 40.0937 1.82807 0.967786 40.0937 1.82807 0.967786
96 2 39.988 1.95141 -2.11322 39.988 1.95141 -2.11322
97 1 41.0705 -0.0837026 -0.630885 41.0705 -0.0837026 -0.630885
98 2 42.9899 -0.115176 1.02336 42.9899 -0.115176 1.02336
99 2 43.0501 0.0624191 -2.20827 43.0501 0.0624191 -2.20827
100 1 43.7776 2.04175 -0.477052 43.7776 2.04175 -0.477052
101 2 45.5451 1.99743 1.25823 45.5451 1.99743 1.25823
102 2 45.7095 2.10038 -2.08123 45.7095 2.10038 -2.08123
103 1 46.7629 -0.00804625 -0.443213 46.7629 -0.00804625 -0.443213
104 2 48.662 -0.0580205 1.31088 48.662 -0.0580205 1.31088
105 2 48.8343 -0.00332625 -1.95723 48.8343 -0.00332625 -1.95723
106 1 49.4956 1.96324 -0.325123 49.4956 1.96324 -0.325123
107 2 51.4119 1.99715 1.34578 51.4119 1.99715 1.34578
108 2 51.6106 2.01718 -1.81456 51.6106 2.01718 -1.81456
109 1 1.02125 4.02857 -0.240719 1.02125 4.02857 -0.240719
110 2 3.00518 3.95652 1.34273 3.00518 3.95652 1.34273
111 2 2.79727 4.01606 -1.89788 2.79727 4.01606 -1.89788
112 1 3.86416 6.01822 -0.212025 3.86416 6.01822 -0.212025
113 2 5.77136 6.03454 1.40665 5.77136 6.03454 1.40665
114 2 5.85573 6.08295 -1.67315 5.85573 6.08295 -1.67315
115 1 6.78209 4.11995 -0.129469 6.78209 4.11995 -0.129469
116 2 8.7122 4.26418 1.53369 8.7122 4.26418 1.53369
117 2 8.73963 3.766 -1.64373 8.73963 3.766 -1.64373
118 1 9.53807 5.96438 -0.231995 9.53807 5.96438 -0.231995
119 2 11.404 5.97376 1.45036 11.404 5.97376 1.45036
120 2 11.5874 5.67793 -1.7342 11.5874 5.67793 -1.7342
121 1 12.4207 3.80689 -0.0235406 12.4207 3.80689 -0.0235406
122 2 14.3144 3.79719 1.6121 14.3144 3.79719 1.6121
123 2 14.39 3.88724 -1.56237 14.39 3.88724 -1.56237
124 1 15.2369 5.8734 0.0185723 15.2369 5.8734 0.0185723
125 2 17.3114 5.89849 1.46784 17.3114 5.89849 1.46784
126 2 17.1972 5.83543 -1.69077 17.1972 5.83543 -1.69077
127 1 18.0945 3.67291 -0.184161 18.0945 3.67291 -0.184161
128 2 20.1255 3.7827 1.30306 20.1255 3.7827 1.30306
129 2 20.0806 3.79145 -1.76714 20.0806 3.79145 -1.76714
130 1 20.9466 5.92014 -0.212113 20.9466 5.92014 -0.212113
131 2 22.8707 5.86095 1.38683 22.8707 5.86095 1.38683
132 2 22.9469 5.91733 -1.73567 22.9469 5.91733 -1.73567
133 1 23.7519 3.83109 -0.198887 23.7519 3.83109 -0.198887
134 2 25.8403 3.89251 1.15118 25.8403 3.89251 1.15118
135 2 25.766 3.86348 -1.91263 25.766 3.86348 -1.91263
136 1 26.6713 5.9197 -0.387391 26.6713 5.9197 -0.387391
137 2 28.6814 5.89716 1.10541 28.6814 5.89716 1.10541
138 2 28.5337 5.74978 -2.11297 28.5337 5.74978 -2.11297
139 1 29.3948 3.8867 -0.471107 29.3948 3.8867 -0.471107
140 2 31.3366 3.84287 1.142 31.3366 3.84287 1.142
141 2 31.414 3.79184 -2.16683 31.414 3.79184 -2.16683
142 1 32.3184 5.91918 -0.578146 32.3184 5.91918 -0.578146
143 2 34.3272 5.85308 0.935164 34.3272 5.85308 0.935164
144 2 34.3823 5.94871 -2.26272 34.3823 5.94871 -2.26272
145 1 35.2041 3.96814 -0.729666 35.2041 3.96814 -0.729666
146 2 37.0175 4.02972 1.0148 37.0175 4.02972 1.0148
147 2 37.4571 4.02312 -2.18946 37.4571 4.02312 -2.18946
148 1 38.0583 6.13706 -0.488447 38.0583 6.13706 -0.488447
149 2 40.0399 6.03327 1.04998 40.0399 6.03327 1.04998
150 2 40.0718 5.91146 -2.03389 40.0718 5.91146 -2.03389
151 1 40.9121 3.96227 -0.47371 40.9121 3.96227 -0.47371
152 2 42.887 4.13633 1.14398 42.887 4.13633 1.14398
153 2 42.8194 4.04665 -2.04797 42.8194 4.04665 -2.04797
154 1 43.8264 5.95563 -0.506622 43.8264 5.95563 -0.506622
155 2 45.5775 5.77721 1.28847 45.5775 5.77721 1.28847
156 2 45.9758 5.90666 -1.85404 45.9758 5.90666 -1.85404
157 1 46.6439 3.91914 -0.273896 46.6439 3.91914 -0.273896
158 2 48.7048 3.91259 1.23999 48.7048 3.91259 1.23999
159 2 48.6445 3.8451 -1.87684 48.6445 3.8451 -1.87684
160 1 49.58 5.98987 -0.270063 49.58 5.98987 -0.270063
161 2 51.4827 5.83955 1.36189 51.4827 5.83955 1.36189
162 2 51.5687 6.0053 -1.75163 51.5687 6.0053 -1.75163
163 1 0.982258 7.84362 -0.000890606 0.982258 7.84362 -0.000890606
164 2 3.18768 7.75431 1.51126 3.18768 7.75431 1.51126
165 2 2.81411 7.98015 -1.61867 2.81411 7.98015 -1.61867
166 1 3.90752 9.82785 -0.0737949 3.90752 9.82785 -0.0737949
167 2 5.78595 10.0422 1.49727 5.78595 10.0422 1.49727
168 2 5.79527 9.75128 -1.74235 5.79527 9.75128 -1.74235
169 1 6.82044 8.06551 0.0515066 6.82044 8.06551 0.0515066
170 2 8.81921 7.96306 1.54088 8.81921 7.96306 1.54088
171 2 8.76917 7.86402 -1.68726 8.76917 7.86402 -1.68726
172 1 9.65883 9.813 -0.0670339 9.65883 9.813 -0.0670339
173 2 11.7654 9.73691 1.48758 11.7654 9.73691 1.48758
174 2 11.6261 9.88547 -1.7474 11.6261 9.88547 -1.7474
175 1 12.4246 7.79352 -0.166705 12.4246 7.79352 -0.166705
176 2 14.393 7.75615 1.57323 14.393 7.75615 1.57323
177 2 14.4685 7.92107 -1.68549 14.4685 7.92107 -1.68549
178 1 15.2337 9.79058 -0.0284081 15.2337 9.79058 -0.0284081
179 2 17.287 9.91146 1.54615 17.287 9.91146 1.54615
180 2 17.1984 9.99838 -1.69587 17.1984 9.99838 -1.69587
181 1 18.211 8.00145 -0.210971 18.211 8.00145 -0.210971
182 2 20.1395 7.95768 1.41527 20.1395 7.95768 1.41527
183 2 20.1687 8.03519 -1.79691 20.1687 8.03519 -1.79691
184 1 21.0259 9.91961 -0.226722 21.0259 9.91961 -0.226722
185 2 22.9196 9.86762 1.36686 22.9196 9.86762 1.36686
186 2 23.1461 9.78681 -1.78575 23.1461 9.78681 -1.78575
187 1 23.8597 7.88518 -0.156268 23.8597 7.88518 -0.156268
188 2 25.8317 7.90227 1.35478 25.8317 7.90227 1.35478
189 2 25.7406 7.81394 -1.87529 25.7406 7.81394 -1.87529
190 1 26.7167 10.0284 -0.275091 26.7167 10.0284 -0.275091
191 2 28.8844 10.0045 1.14823 28.8844 10.0045 1.14823
192 2 28.5239 10.0027 -2.16887 28.5239 10.0027 -2.16887
193 1 29.5244 7.90296 -0.676085 29.5244 7.90296 -0.676085
194 2 31.4249 7.95938 0.924417 31.4249 7.95938 0.924417
195 2 31.5395 7.88543 -2.30457 31.5395 7.88543 -2.30457
196 1 32.407 10.0135 -0.75003 32.407 10.0135 -0.75003
197 2 34.3852 9.93027 0.936211 34.3852 9.93027 0.936211
198 2 34.5202 10.0748 -2.18676 34.5202 10.0748 -2.18676
199 1 35.1834 7.90151 -0.661236 35.1834 7.90151 -0.661236
200 2 37.0484 7.89745 1.1872 37.0484 7.89745 1.1872
201 2 37.2612 7.86955 -2.11326 37.2612 7.86955 -2.11326
202 1 38.1033 9.98574 -0.323779 38.1033 9.98574 -0.323779
203 2 40.1112 10.1064 1.1346 40.1112 10.1064 1.1346
204 2 40.0031 9.91993 -2.02269 40.0031 9.91993 -2.02269
205 1 40.9907 7.97064 -0.510405 40.9907 7.97064 -0.510405
206 2 42.9775 7.97502 1.02366 42.9775 7.97502 1.02366
207 2 43.0335 7.98363 -2.11416 43.0335 7.98363 -2.11416
208 1 43.8927 10.1351 -0.505001 43.8927 10.1351 -0.505001
209 2 45.8328 10.0431 1.23604 45.8328 10.0431 1.23604
210 2 46.0659 10.1661 -1.83366 46.0659 10.1661 -1.83366
211 1 46.697 7.88922 -0.161652 46.697 7.88922 -0.161652
212 2 48.6998 7.86265 1.29703 48.6998 7.86265 1.29703
213 2 48.6153 7.98651 -1.827 48.6153 7.98651 -1.827
214 1 49.5756 10.0326 -0.292461 49.5756 10.0326 -0.292461
215 2 51.4754 10.0082 1.50983 51.4754 10.0082 1.50983
216 2 51.7431 10.0362 -1.81879 51.7431 10.0362 -1.81879
217 1 0.996121 11.9176 -0.0613174 0.996121 11.9176 -0.0613174
218 2 3.00314 11.8727 1.39605 3.00314 11.8727 1.39605
219 2 3.10371 11.9961 -1.61722 3.10371 11.9961 -1.61722
220 1 3.86184 14.0335 -0.059279 3.86184 14.0335 -0.059279
221 2 5.8005 13.9068 1.44712 5.8005 13.9068 1.44712
222 2 5.64118 13.8147 -1.83373 5.64118 13.8147 -1.83373
223 1 6.73705 11.9048 -0.180707 6.73705 11.9048 -0.180707
224 2 8.6877 11.9554 1.52649 8.6877 11.9554 1.52649
225 2 8.70441 11.8702 -1.68792 8.70441 11.8702 -1.68792
226 1 9.53949 13.8313 -0.0919094 9.53949 13.8313 -0.0919094
227 2 11.586 13.9496 1.44915 11.586 13.9496 1.44915
228 2 11.5089 13.7755 -1.62493 11.5089 13.7755 -1.62493
229 1 12.4676 11.8145 -0.121458 12.4676 11.8145 -0.121458
230 2 14.3032 11.824 1.53437 14.3032 11.824 1.53437
231 2 14.4083 11.729 -1.79613 14.4083 11.729 -1.79613
232 1 15.2295 14.0192 -0.164581 15.2295 14.0192 -0.164581
233 2 17.0532 13.9815 1.52369 17.0532 13.9815 1.52369
234 2 17.2817 13.8495 -1.74572 17.2817 13.8495 -1.74572
235 1 18.1741 11.9969 -0.00170282 18.1741 11.9969 -0.00170282
236 2 20.2929 12.0003 1.40238 20.2929 12.0003 1.40238
237 2 19.9308 11.996 -1.79693 19.9308 11.996 -1.79693
238 1 20.9351 13.952 -0.313621 20.9351 13.952 -0.313621
239 2 22.9156 13.7859 1.3767 22.9156 13.7859 1.3767
240 2 23.121 14.0384 -1.81482 23.121 14.0384 -1.81482
241 1 23.8454 11.7912 -0.231927 23.8454 11.7912 -0.231927
242 2 25.7113 11.786 1.40583 25.7113 11.786 1.40583
243 2 25.7903 11.9418 -1.85343 25.7903 11.9418 -1.85343
244 1 26.6937 13.9229 -0.0200461 26.6937 13.9229 -0.0200461
245 2 28.9076 13.8366 1.36056 28.9076 13.8366 1.36056
246 2 28.4309 13.8929 -1.8212 28.4309 13.8929 -1.8212
247 1 29.5421 11.9377 -0.425985 29.5421 11.9377 -0.425985
248 2 31.6352 11.7366 1.12682 31.6352 11.7366 1.12682
249 2 31.5315 12.2617 -2.01939 31.5315 12.2617 -2.01939
250 1 32.3354 13.9253 -0.311572 32.3354 13.9253 -0.311572
251 2 34.4253 13.9805 1.12491 34.4253 13.9805 1.12491
252 2 34.2319 13.8475 -2.05464 34.2319 13.8475 -2.05464
253 1 35.2532 12.0275 -0.48513 35.2532 12.0275 -0.48513
254 2 37.2355 12.1906 1.07783 37.2355 12.1906 1.07783
255 2 37.2927 11.9335 -2.07717 37.2927 11.9335 -2.07717
256 1 38.1623 13.9257 -0.57739 38.1623 13.9257 -0.57739
257 2 39.9762 13.9813 1.19136 39.9762 13.9813 1.19136
258 2 40.2103 14.1634 -2.0881 40.2103 14.1634 -2.0881
259 1 41.0619 11.9893 -0.470748 41.0619 11.9893 -0.470748
260 2 42.9641 12.0105 1.18464 42.9641 12.0105 1.18464
261 2 43.0349 12.0567 -2.08157 43.0349 12.0567 -2.08157
262 1 43.8886 14.022 -0.35934 43.8886 14.022 -0.35934
263 2 45.7988 14.0608 1.30867 45.7988 14.0608 1.30867
264 2 45.9272 13.9948 -1.85134 45.9272 13.9948 -1.85134
265 1 46.7148 12.0296 -0.195498 46.7148 12.0296 -0.195498
266 2 48.6034 11.8028 1.38508 48.6034 11.8028 1.38508
267 2 48.6921 12.1533 -1.83741 48.6921 12.1533 -1.83741
268 1 49.4505 13.9235 -0.103509 49.4505 13.9235 -0.103509
269 2 51.4267 13.9067 1.52379 51.4267 13.9067 1.52379
270 2 51.3654 14.1402 -1.66309 51.3654 14.1402 -1.66309
271 1 0.980212 15.8798 -0.0704914 0.980212 15.8798 -0.0704914
272 2 2.84221 15.9674 1.49602 2.84221 15.9674 1.49602
273 2 2.84456 15.8503 -1.73878 2.84456 15.8503 -1.73878
274 1 3.75833 17.9096 -0.229532 3.75833 17.9096 -0.229532
275 2 5.84259 17.9616 1.26014 5.84259 17.9616 1.26014
276 2 5.56978 17.8219 -1.90376 5.56978 17.8219 -1.90376
277 1 6.67301 15.878 -0.250914 6.67301 15.878 -0.250914
278 2 8.56769 16.0625 1.3 8.56769 16.0625 1.3
279 2 8.60044 15.6453 -1.81368 8.60044 15.6453 -1.81368
280 1 9.53664 17.9055 -0.355606 9.53664 17.9055 -0.355606
281 2 11.4078 17.8065 1.27021 11.4078 17.8065 1.27021
282 2 11.5318 17.9072 -2.04358 11.5318 17.9072 -2.04358
283 1 12.4466 15.8368 -0.321858 12.4466 15.8368 -0.321858
284 2 14.2475 15.8649 1.37102 14.2475 15.8649 1.37102
285 2 14.4826 15.85 -1.90352 14.4826 15.85 -1.90352
286 1 15.3265 17.9617 -0.157626 15.3265 17.9617 -0.157626
287 2 17.2647 17.912 1.54792 17.2647 17.912 1.54792
288 2 17.3779 17.9576 -1.86031 17.3779 17.9576 -1.86031
289 1 18.1225 16.1318 -0.225041 18.1225 16.1318 -0.225041
290 2 20.0109 15.7145 1.45836 20.0109 15.7145 1.45836
291 2 20.1237 16.0577 -1.83606 20.1237 16.0577 -1.83606
292 1 21.0945 17.8857 -0.0420777 21.0945 17.8857 -0.0420777
293 2 23.1585 17.8378 1.5277 23.1585 17.8378 1.5277
294 2 22.9358 18.0749 -1.70662 22.9358 18.0749 -1.70662
295 1 23.8735 15.9152 -0.218173 23.8735 15.9152 -0.218173
296 2 25.5996 15.7694 1.60521 25.5996 15.7694 1.60521
297 2 25.9593 16.031 -1.6273 25.9593 16.031 -1.6273
298 1 26.5724 17.8386 0.18349 26.5724 17.8386 0.18349
299 2 28.6913 17.8443 1.63296 28.6913 17.8443 1.63296
300 2 28.4842 18.012 -1.52614 28.4842 18.012 -1.52614
301 1 29.5811 15.9361 -0.252992 29.5811 15.9361 -0.252992
302 2 31.5417 15.9385 1.36075 31.5417 15.9385 1.36075
303 2 31.5362 16.0052 -1.81262 31.5362 16.0052 -1.81262
304 1 32.4317 17.9604 -0.205682 32.4317 17.9604 -0.205682
305 2 34.3555 17.8062 1.35568 34.3555 17.8062 1.35568
306 2 34.3507 18.09 -1.85193 34.3507 18.09 -1.85193
307 1 35.2203 15.9793 -0.424188 35.2203 15.9793 -0.424188
308 2 37.2818 15.7481 1.03745 37.2818 15.7481 1.03745
309 2 37.0131 16.0203 -2.06701 37.0131 16.0203 -2.06701
310 1 38.1061 17.963 -0.466661 38.1061 17.963 -0.466661
311 2 39.8559 18.0085 1.29313 39.8559 18.0085 1.29313
312 2 40.3157 17.9796 -1.84379 40.3157 17.9796 -1.84379
313 1 41.0199 15.9076 -0.190416 41.0199 15.9076 -0.190416
314 2 43.0943 15.8507 1.41667 43.0943 15.8507 1.41667
315 2 42.8121 16.0661 -1.85629 42.8121 16.0661 -1.85629
316 1 43.8103 17.9021 -0.0824704 43.8103 17.9021 -0.0824704
317 2 45.8623 18.0384 1.35131 45.8623 18.0384 1.35131
318 2 45.7614 17.968 -1.75278 45.7614 17.968 -1.75278
319 1 46.7117 15.9888 -0.153117 46.7117 15.9888 -0.153117
320 2 48.6501 15.9111 1.43437 48.6501 15.9111 1.43437
321 2 48.6949 15.9762 -1.82929 48.6949 15.9762 -1.82929
322 1 49.5226 17.9758 -0.3426 49.5226 17.9758 -0.3426
323 2 51.3837 18.0197 1.35691 51.3837 18.0197 1.35691
324 2 51.6931 17.9223 -1.91249 51.6931 17.9223 -1.91249
325 1 0.946174 19.8598 -0.238254 0.946174 19.8598 -0.238254
326 2 2.8148 19.6769 1.44613 2.8148 19.6769 1.44613
327 2 3.0622 19.8787 -1.73339 3.0622 19.8787 -1.73339
328 1 3.77952 21.684 0.00737244 3.77952 21.684 0.00737244
329 2 6.00193 21.7193 1.41425 6.00193 21.7193 1.41425
330 2 5.65485 21.9701 -1.73213 5.65485 21.9701 -1.73213
331 1 6.67357 19.8551 -0.420652 6.67357 19.8551 -0.420652
332 2 8.54168 19.7463 1.30832 8.54168 19.7463 1.30832
333 2 8.61352 19.9216 -1.92288 8.61352 19.9216 -1.92288
334 1 9.54138 21.8482 -0.0297245 9.54138 21.8482 -0.0297245
335 2 11.5777 21.7177 1.49118 11.5777 21.7177 1.49118
336 2 11.4775 21.8099 -1.72881 11.4775 21.8099 -1.72881
337 1 12.4035 19.8306 -0.225743 12.4035 19.8306 -0.225743
338 2 14.3124 19.8465 1.40694 14.3124 19.8465 1.40694
339 2 14.3122 19.712 -1.84469 14.3122 19.712 -1.84469
340 1 15.2072 21.7274 -0.310623 15.2072 21.7274 -0.310623
341 2 16.9885 21.6307 1.47905 16.9885 21.6307 1.47905
342 2 17.3395 21.8528 -1.63114 17.3395 21.8528 -1.63114
343 1 18.196 19.7472 -0.055065 18.196 19.7472 -0.055065
344 2 20.2233 19.8268 1.51872 20.2233 19.8268 1.51872
345 2 20.1157 19.7748 -1.72987 20.1157 19.7748 -1.72987
346 1 20.8845 21.843 -0.0528673 20.8845 21.843 -0.0528673
347 2 22.812 21.8809 1.61758 22.812 21.8809 1.61758
348 2 22.845 21.9267 -1.60141 22.845 21.9267 -1.60141
349 1 23.7924 19.8661 -0.0444495 23.7924 19.8661 -0.0444495
350 2 25.5657 19.7337 1.82766 25.5657 19.7337 1.82766
351 2 25.9906 19.9522 -1.38808 25.9906 19.9522 -1.38808
352 1 26.5894 21.8453 0.369297 26.5894 21.8453 0.369297
353 2 28.6646 21.5591 1.79614 28.6646 21.5591 1.79614
354 2 28.5092 21.9886 -1.31512 28.5092 21.9886 -1.31512
355 1 29.4613 19.8887 0.0310462 29.4613 19.8887 0.0310462
356 2 31.4585 19.7261 1.58714 31.4585 19.7261 1.58714
357 2 31.5043 19.8825 -1.71706 31.5043 19.8825 -1.71706
358 1 32.5053 21.8178 0.0451309 32.5053 21.8178 0.0451309
359 2 34.5266 21.8192 1.62805 34.5266 21.8192 1.62805
360 2 34.3776 21.9812 -1.71738 34.3776 21.9812 -1.71738
361 1 35.2293 19.8625 -0.119549 35.2293 19.8625 -0.119549
362 2 37.2975 19.734 1.35193 37.2975 19.734 1.35193
363 2 37.0119 19.9083 -1.95893 37.0119 19.9083 -1.95893
364 1 38.1438 21.8476 -0.323908 38.1438 21.8476 -0.323908
365 2 39.9558 21.7784 1.58557 39.9558 21.7784 1.58557
366 2 40.2191 22.2248 -1.61005 40.2191 22.2248 -1.61005
367 1 41.0064 19.9044 -0.221742 41.0064 19.9044 -0.221742
368 2 42.8854 19.805 1.45976 42.8854 19.805 1.45976
369 2 42.9557 19.8167 -1.71177 42.9557 19.8167 -1.71177
370 1 43.7907 21.8826 -0.0579858 43.7907 21.8826 -0.0579858
371 2 45.6065 21.7166 1.52025 45.6065 21.7166 1.52025
372 2 45.8231 22.1609 -1.65295 45.8231 22.1609 -1.65295
373 1 46.6976 20.0505 -0.269022 46.6976 20.0505 -0.269022
374 2 48.6959 20.0436 1.28422 48.6959 20.0436 1.28422
375 2 48.578 20.086 -1.80883 48.578 20.086 -1.80883
376 1 49.4281 21.8575 -0.215663 49.4281 21.8575 -0.215663
377 2 51.4563 21.8439 1.34767 51.4563 21.8439 1.34767
378 2 51.4755 21.8632 -1.862 51.4755 21.8632 -1.862
379 1 0.980223 23.8439 -0.135304 0.980223 23.8439 -0.135304
380 2 2.87183 23.8419 1.51611 2.87183 23.8419 1.51611
381 2 3.01838 23.7601 -1.63656 3.01838 23.7601 -1.63656
382 1 3.73302 25.8958 -0.0522706 3.73302 25.8958 -0.0522706
383 2 5.78298 25.919 1.47131 5.78298 25.919 1.47131
384 2 5.68235 25.8398 -1.73888 5.68235 25.8398 -1.73888
385 1 6.59224 23.8925 -0.0812988 6.59224 23.8925 -0.0812988
386 2 8.59396 23.8173 1.48728 8.59396 23.8173 1.48728
387 2 8.63017 23.8127 -1.62799 8.63017 23.8127 -1.62799
388 1 9.52469 25.8636 -0.0413173 9.52469 25.8636 -0.0413173
389 2 11.5361 25.7823 1.49882 11.5361 25.7823 1.49882
390 2 11.3726 25.8198 -1.64656 11.3726 25.8198 -1.64656
391 1 12.2738 23.7199 -0.163335 12.2738 23.7199 -0.163335
392 2 14.3283 23.6787 1.36107 14.3283 23.6787 1.36107
393 2 14.4039 23.7174 -1.71233 14.4039 23.7174 -1.71233
394 1 15.2448 25.6844 -0.0718051 15.2448 25.6844 -0.0718051
395 2 17.2285 25.7884 1.53857 17.2285 25.7884 1.53857
396 2 17.2894 25.6784 -1.68922 17.2894 25.6784 -1.68922
397 1 18.0466 23.7884 0.0312199 18.0466 23.7884 0.0312199
398 2 20.1436 23.8074 1.53277 20.1436 23.8074 1.53277
399 2 19.9401 23.7295 -1.74422 19.9401 23.7295 -1.74422
400 1 20.9658 25.7035 -0.190957 20.9658 25.7035 -0.190957
401 2 22.8113 25.7216 1.62052 22.8113 25.7216 1.62052
402 2 23.1241 25.7234 -1.55254 23.1241 25.7234 -1.55254
403 1 23.7943 23.7829 0.0505912 23.7943 23.7829 0.0505912
404 2 25.5207 23.9307 1.81721 25.5207 23.9307 1.81721
405 2 25.8347 23.7977 -1.38128 25.8347 23.7977 -1.38128
406 1 26.6077 25.8495 0.269862 26.6077 25.8495 0.269862
407 2 28.602 25.8662 1.82228 28.602 25.8662 1.82228
408 2 28.6111 25.5726 -1.26834 28.6111 25.5726 -1.26834
409 1 29.4126 23.8374 0.407434 29.4126 23.8374 0.407434
410 2 31.6005 23.7523 1.83658 31.6005 23.7523 1.83658
411 2 31.3415 23.8896 -1.33755 31.3415 23.8896 -1.33755
412 1 32.4615 25.6819 0.196155 32.4615 25.6819 0.196155
413 2 34.4971 25.7052 1.60787 34.4971 25.7052 1.60787
414 2 34.1351 25.7378 -1.61052 34.1351 25.7378 -1.61052
415 1 35.2325 23.7827 -0.0482374 35.2325 23.7827 -0.0482374
416 2 37.2137 23.6763 1.53324 37.2137 23.6763 1.53324
417 2 37.1814 23.862 -1.80223 37.1814 23.862 -1.80223
418 1 38.0921 25.6929 -0.183774 38.0921 25.6929 -0.183774
419 2 39.7879 25.7462 1.68634 39.7879 25.7462 1.68634
420 2 40.1956 25.6432 -1.45878 40.1956 25.6432 -1.45878
421 1 40.9442 23.8108 0.264519 40.9442 23.8108 0.264519
422 2 43.1395 23.705 1.64546 43.1395 23.705 1.64546
423 2 42.711 23.761 -1.40505 42.711 23.761 -1.40505
424 1 43.7387 25.791 -0.0225996 43.7387 25.791 -0.0225996
425 2 45.745 25.7518 1.68162 45.745 25.7518 1.68162
426 2 45.8175 25.8216 -1.54874 45.8175 25.8216 -1.54874
427 1 46.6424 23.8329 0.155753 46.6424 23.8329 0.155753
428 2 48.7561 23.8426 1.4997 48.7561 23.8426 1.4997
429 2 48.3839 23.9701 -1.63034 48.3839 23.9701 -1.63034
430 1 49.4292 25.9556 -0.146034 49.4292 25.9556 -0.146034
431 2 51.2458 25.8794 1.53485 51.2458 25.8794 1.53485
432 2 51.5765 25.8477 -1.56017 51.5765 25.8477 -1.56017
433 1 0.995012 27.7744 0.127344 0.995012 27.7744 0.127344
434 2 2.95708 27.6061 1.68623 2.95708 27.6061 1.68623
435 2 2.74106 28.0183 -1.68092 2.74106 28.0183 -1.68092
436 1 3.70963 29.8368 0.054709 3.70963 29.8368 0.054709
437 2 5.79461 29.6091 1.44163 5.79461 29.6091 1.44163
438 2 5.60289 29.7411 -1.69913 5.60289 29.7411 -1.69913
439 1 6.57181 27.7243 -0.204704 6.57181 27.7243 -0.204704
440 2 8.48849 27.8515 1.45539 8.48849 27.8515 1.45539
441 2 8.67302 27.6438 -1.80288 8.67302 27.6438 -1.80288
442 1 9.43017 29.7416 -0.341992 9.43017 29.7416 -0.341992
443 2 11.2944 29.7081 1.46814 11.2944 29.7081 1.46814
444 2 11.5276 29.859 -1.70828 11.5276 29.859 -1.70828
445 1 12.3358 27.8057 -0.121097 12.3358 27.8057 -0.121097
446 2 14.2806 27.6469 1.48975 14.2806 27.6469 1.48975
447 2 14.3839 27.6504 -1.74013 14.3839 27.6504 -1.74013
448 1 15.2334 29.6812 -0.091302 15.2334 29.6812 -0.091302
449 2 17.2272 29.6866 1.49522 17.2272 29.6866 1.49522
450 2 17.234 29.6147 -1.66071 17.234 29.6147 -1.66071
451 1 18.1262 27.7379 -0.0694543 18.1262 27.7379 -0.0694543
452 2 19.9907 27.6643 1.53414 19.9907 27.6643 1.53414
453 2 20.0815 27.7372 -1.65591 20.0815 27.7372 -1.65591
454 1 21.0207 29.647 0.0110671 21.0207 29.647 0.0110671
455 2 22.9219 29.5913 1.61463 22.9219 29.5913 1.61463
456 2 23.0844 29.4985 -1.55246 23.0844 29.4985 -1.55246
457 1 23.7795 27.6304 0.178062 23.7795 27.6304 0.178062
458 2 25.7151 27.6239 1.83509 25.7151 27.6239 1.83509
459 2 25.7615 27.7276 -1.39456 25.7615 27.7276 -1.39456
460 1 26.629 29.5927 0.30579 26.629 29.5927 0.30579
461 2 28.5959 29.6064 1.87929 28.5959 29.6064 1.87929
462 2 28.5384 29.8095 -1.30753 28.5384 29.8095 -1.30753
463 1 29.6224 27.6117 0.218387 29.6224 27.6117 0.218387
464 2 31.5808 27.631 1.72976 31.5808 27.631 1.72976
465 2 31.5418 27.5463 -1.38915 31.5418 27.5463 -1.38915
466 1 32.457 29.5976 0.175003 32.457 29.5976 0.175003
467 2 34.5316 29.6921 1.57825 34.5316 29.6921 1.57825
468 2 34.3502 29.6001 -1.60808 34.3502 29.6001 -1.60808
469 1 35.2451 27.7079 -0.0748564 35.2451 27.7079 -0.0748564
470 2 37.2205 27.6619 1.46089 37.2205 27.6619 1.46089
471 2 37.0637 27.5808 -1.76363 37.0637 27.5808 -1.76363
472 1 38.0602 29.6292 -0.253762 38.0602 29.6292 -0.253762
473 2 39.841 29.8095 1.50004 39.841 29.8095 1.50004
474 2 40.1903 29.5157 -1.63073 40.1903 29.5157 -1.63073
475 1 40.8235 27.7553 0.199778 40.8235 27.7553 0.199778
476 2 42.9404 27.7209 1.71883 42.9404 27.7209 1.71883
477 2 42.7398 27.7493 -1.43375 42.7398 27.7493 -1.43375
478 1 43.7766 29.8079 0.176086 43.7766 29.8079 0.176086
479 2 45.9248 29.997 1.59088 45.9248 29.997 1.59088
480 2 45.6235 29.6119 -1.61279 45.6235 29.6119 -1.61279
481 1 46.6631 27.9077 0.0537872 46.6631 27.9077 0.0537872
482 2 48.6589 27.6944 1.58663 48.6589 27.6944 1.58663
483 2 48.5439 28.0032 -1.59534 48.5439 28.0032 -1.59534
484 1 49.4828 29.7018 0.142947 49.4828 29.7018 0.142947
485 2 51.569 29.6844 1.65126 51.569 29.6844 1.65126
486 2 51.4249 29.8136 -1.49105 51.4249 29.8136 -1.49105
487 1 0.974061 31.853 0.0821534 0.974061 31.853 0.0821534
488 2 3.01733 31.767 1.58285 3.01733 31.767 1.58285
489 2 2.81544 31.7806 -1.5786 2.81544 31.7806 -1.5786
490 1 3.87331 33.7613 -0.0223041 3.87331 33.7613 -0.0223041
491 2 5.9214 33.5935 1.59084 5.9214 33.5935 1.59084
492 2 5.84854 33.896 -1.7199 5.84854 33.896 -1.7199
493 1 6.71331 31.7203 -0.181711 6.71331 31.7203 -0.181711
494 2 8.62245 31.6268 1.31948 8.62245 31.6268 1.31948
495 2 8.63059 31.6382 -1.7981 8.63059 31.6382 -1.7981
496 1 9.53016 33.8528 -0.261828 9.53016 33.8528 -0.261828
497 2 11.4503 33.8164 1.54541 11.4503 33.8164 1.54541
498 2 11.6653 33.7928 -1.69327 11.6653 33.7928 -1.69327
499 1 12.3816 31.7623 0.00312108 12.3816 31.7623 0.00312108
500 2 14.3197 31.5233 1.50184 14.3197 31.5233 1.50184
501 2 14.3226 31.7754 -1.75188 14.3226 31.7754 -1.75188
502 1 15.4473 33.6794 -0.000953658 15.4473 33.6794 -0.000953658
503 2 17.3668 33.5591 1.54997 17.3668 33.5591 1.54997
504 2 17.3566 33.6178 -1.60334 17.3566 33.6178 -1.60334
505 1 18.1874 31.5631 -0.00333869 18.1874 31.5631 -0.00333869
506 2 20.1516 31.5474 1.68092 20.1516 31.5474 1.68092
507 2 20.2322 31.832 -1.41826 20.2322 31.832 -1.41826
508 1 21.0737 33.6381 0.214439 21.0737 33.6381 0.214439
509 2 22.9709 33.3486 1.71961 22.9709 33.3486 1.71961
510 2 23.0062 33.7703 -1.366 23.0062 33.7703 -1.366
511 1 23.834 31.499 0.0471628 23.834 31.499 0.0471628
512 2 25.7332 31.6652 1.75226 25.7332 31.6652 1.75226
513 2 25.7644 31.4535 -1.48766 25.7644 31.4535 -1.48766
514 1 26.6508 33.492 0.108665 26.6508 33.492 0.108665
515 2 28.5535 33.7356 1.81605 28.5535 33.7356 1.81605
516 2 28.734 33.4571 -1.42124 28.734 33.4571 -1.42124
517 1 29.5603 31.54 0.341097 29.5603 31.54 0.341097
518 2 31.6213 31.7035 1.73823 31.6213 31.7035 1.73823
519 2 31.3604 31.392 -1.46474 31.3604 31.392 -1.46474
520 1 32.3887 33.5779 -0.0869564 32.3887 33.5779 -0.0869564
521 2 34.5419 33.6991 1.37976 34.5419 33.6991 1.37976
522 2 34.3482 33.4629 -1.72515 34.3482 33.4629 -1.72515
523 1 35.2792 31.6199 -0.258669 35.2792 31.6199 -0.258669
524 2 37.1268 31.5533 1.4042 37.1268 31.5533 1.4042
525 2 37.1457 31.755 -1.82742 37.1457 31.755 -1.82742
526 1 38.0801 33.7588 -0.146871 38.0801 33.7588 -0.146871
527 2 39.9913 33.6919 1.5089 39.9913 33.6919 1.5089
528 2 40.0942 33.873 -1.65359 40.0942 33.873 -1.65359
529 1 40.9004 31.5814 -0.123564 40.9004 31.5814 -0.123564
530 2 42.6962 31.8552 1.6032 42.6962 31.8552 1.6032
531 2 43.0044 31.4773 -1.60898 43.0044 31.4773 -1.60898
532 1 43.7966 33.7008 -0.223627 43.7966 33.7008 -0.223627
533 2 45.8259 33.6493 1.39582 45.8259 33.6493 1.39582