ITEM: TIMESTEP
1152000
ITEM: NUMBER OF ATOMS
810
ITEM: BOX BOUNDS pp pp pp
8.0341777045796159e-01 5.2214187229542503e+01
-2.0398835126349839e+00 5.3056098512633852e+01
-1.0000000000000000e+01 1.0000000000000000e+01
ITEM: ATOMS id type x y z xu yu zu
1 1 0.963451 -1.79445 -0.214005 0.963451 -1.79445 -0.214005
2 2 2.8965 53.0421 1.52097 2.8965 -2.05389 1.52097
3 2 3.028 -1.68025 -1.71962 3.028 -1.68025 -1.71962
4 1 3.92453 0.0835381 0.0345285 3.92453 0.0835381 0.0345285
5 2 5.81999 0.0641152 1.65901 5.81999 0.0641152 1.65901
6 2 5.85376 -0.0579773 -1.53774 5.85376 -0.0579773 -1.53774
7 1 6.75248 -1.93095 0.178364 6.75248 -1.93095 0.178364
8 2 8.7102 -2.0068 1.81623 8.7102 -2.0068 1.81623
9 2 8.76655 -1.82518 -1.34188 8.76655 -1.82518 -1.34188
10 1 9.57177 0.0248406 0.335763 9.57177 0.0248406 0.335763
11 2 11.6082 0.0868904 1.80071 11.6082 0.0868904 1.80071
12 2 11.4888 0.0133152 -1.37674 11.4888 0.0133152 -1.37674
13 1 12.4805 -1.77776 0.146691 12.4805 -1.77776 0.146691
14 2 14.3364 -1.79362 1.77254 14.3364 -1.79362 1.77254
15 2 14.4723 -1.81733 -1.48634 14.4723 -1.81733 -1.48634
16 1 15.3395 0.0321217 0.221692 15.3395 0.0321217 0.221692
17 2 17.4308 -0.0148843 1.64472 17.4308 -0.0148843 1.64472
18 2 17.1285 0.0387216 -1.54199 17.1285 0.0387216 -1.54199
19 1 18.1624 -1.82213 -0.0636268 18.1624 -1.82213 -0.0636268
20 2 20.1385 -1.73446 1.60907 20.1385 -1.73446 1.60907
21 2 20.1633 -1.78778 -1.64192 20.1633 -1.78778 -1.64192
22 1 21.0303 -0.000619154 0.088392 21.0303 -0.000619154 0.088392
23 2 22.8714 0.0157476 1.77934 22.8714 0.0157476 1.77934
24 2 23.0603 0.185063 -1.44061 23.0603 0.185063 -1.44061
25 1 23.8811 -1.76431 0.202513 23.8811 -1.76431 0.202513
26 2 25.8637 -1.72058 1.8417 25.8637 -1.72058 1.8417
27 2 25.7921 -1.70366 -1.35765 25.7921 -1.70366 -1.35765
28 1 26.7061 0.197213 0.216257 26.7061 0.197213 0.216257
29 2 28.7925 0.262718 1.69195 28.7925 0.262718 1.69195
30 2 28.5117 0.0117805 -1.48466 28.5117 0.0117805 -1.48466
31 1 29.567 -1.6928 -0.00725802 29.567 -1.6928 -0.00725802
32 2 31.5287 -1.71748 1.57798 31.5287 -1.71748 1.57798
33 2 31.3769 -1.76747 -1.69887 31.3769 -1.76747 -1.69887
34 1 32.4201 0.189849 -0.0853993 32.4201 0.189849 -0.0853993
35 2 34.3332 0.112799 1.52348 34.3332 0.112799 1.52348
36 2 34.2466 0.149769 -1.68072 34.2466 0.149769 -1.68072
37 1 35.2294 -1.76654 -0.0907128 35.2294 -1.76654 -0.0907128
38 2 37.2518 -1.73124 1.46333 37.2518 -1.73124 1.46333
39 2 37.1126 -1.85187 -1.70639 37.1126 -1.85187 -1.70639
40 1 38.182 0.0680172 -0.181088 38.182 0.0680172 -0.181088
41 2 40.2361 0.103286 1.35613 40.2361 0.103286 1.35613
42 2 40.0231 -0.0318926 -1.94414 40.0231 -0.0318926 -1.94414
43 1 40.965 -1.89923 -0.230089 40.965 -1.89923 -0.230089
44 2 42.8316 -1.84155 1.488 42.8316 -1.84155 1.488
45 2 42.9955 -1.82249 -1.707 42.9955 -1.82249 -1.707
46 1 43.8003 -0.0111489 0.0369846 43.8003 -0.0111489 0.0369846
47 2 45.937 -0.00145813 1.45113 45.937 -0.00145813 1.45113
48 2 45.7071 0.0330668 -1.71733 45.7071 0.0330668 -1.71733
49 1 46.7536 -1.80032 -0.242231 46.7536 -1.80032 -0.242231
50 2 48.8244 -1.68134 1.14838 48.8244 -1.68134 1.14838
51 2 48.5132 -1.6543 -2.05902 48.5132 -1.6543 -2.05902
52 1 49.6416 0.129671 -0.544863 49.6416 0.129671 -0.544863
53 2 51.4864 0.24028 1.2336 51.4864 0.24028 1.2336
54 2 51.6363 -0.0989957 -2.02097 51.6363 -0.0989957 -2.02097
55 1 1.12853 1.8139 -0.436327 1.12853 1.8139 -0.436327
56 2 2.88342 2.0343 1.45111 2.88342 2.0343 1.45111
57 2 3.22878 1.76791 -1.80168 3.22878 1.76791 -1.80168
58 1 3.95913 3.72422 -0.143582 3.95913 3.72422 -0.143582
59 2 5.73715 3.56016 1.57364 5.73715 3.56016 1.57364
60 2 5.94745 3.67186 -1.65455 5.94745 3.67186 -1.65455
61 1 6.84904 1.86231 0.0134253 6.84904 1.86231 0.0134253
62 2 8.5073 1.91027 1.88269 8.5073 1.91027 1.88269
63 2 8.97808 1.80315 -1.36217 8.97808 1.80315 -1.36217
64 1 9.652 3.67845 0.23186 9.652 3.67845 0.23186
65 2 11.6358 3.78547 1.67203 11.6358 3.78547 1.67203
66 2 11.4131 3.59087 -1.51776 11.4131 3.59087 -1.51776
67 1 12.4367 1.8786 0.112461 12.4367 1.8786 0.112461
68 2 14.3329 1.89377 1.70795 14.3329 1.89377 1.70795
69 2 14.4653 1.7607 -1.41827 14.4653 1.7607 -1.41827
70 1 15.257 3.66548 0.0925922 15.257 3.66548 0.0925922
71 2 17.287 3.68815 1.64401 17.287 3.68815 1.64401
72 2 17.1037 3.7556 -1.60748 17.1037 3.7556 -1.60748
73 1 18.1479 1.88983 -0.0421927 18.1479 1.88983 -0.0421927
74 2 20.1651 1.99129 1.56001 20.1651 1.99129 1.56001
75 2 20.152 1.73132 -1.5911 20.152 1.73132 -1.5911
76 1 21.0118 3.64964 -0.106156 21.0118 3.64964 -0.106156
77 2 22.9708 3.84638 1.44401 22.9708 3.84638 1.44401
78 2 22.8746 3.47327 -1.73045 22.8746 3.47327 -1.73045
79 1 23.9367 1.93743 0.0735014 23.9367 1.93743 0.0735014
80 2 25.8629 2.19198 1.62274 25.8629 2.19198 1.62274
81 2 25.7152 1.81315 -1.51784 25.7152 1.81315 -1.51784
82 1 26.7555 3.80906 -0.193626 26.7555 3.80906 -0.193626
83 2 28.6393 3.88583 1.48968 28.6393 3.88583 1.48968
84 2 28.6823 3.62085 -1.81227 28.6823 3.62085 -1.81227
85 1 29.5359 2.01704 -0.0726899 29.5359 2.01704 -0.0726899
86 2 31.4203 1.90818 1.51698 31.4203 1.90818 1.51698
87 2 31.5869 1.96429 -1.6432 31.5869 1.96429 -1.6432
88 1 32.4496 3.79665 -0.0369504 32.4496 3.79665 -0.0369504
89 2 34.415 3.8719 1.48732 34.415 3.8719 1.48732
90 2 34.2653 3.82577 -1.73359 34.2653 3.82577 -1.73359
91 1 35.3061 1.89435 -0.106897 35.3061 1.89435 -0.106897
92 2 37.4219 1.94492 1.38813 37.4219 1.94492 1.38813
93 2 37.1339 1.73171 -1.93476 37.1339 1.73171 -1.93476
94 1 38.1442 3.68421 -0.56462 38.1442 3.68421 -0.56462
95 2 40.0072 3.7477 1.12766 40.0072 3.7477 1.12766
96 2 40.1599 3.68871 -2.02862 40.1599 3.68871 -2.02862
97 1 41.0251 1.93153 -0.348106 41.0251 1.93153 -0.348106
98 2 42.8625 2.12997 1.34214 42.8625 2.12997 1.34214
99 2 42.8906 1.70178 -1.9334 42.8906 1.70178 -1.9334
100 1 43.9474 3.67947 -0.609453 43.9474 3.67947 -0.609453
101 2 45.7297 3.98457 1.20652 45.7297 3.98457 1.20652
102 2 46.1352 3.54616 -2.00598 46.1352 3.54616 -2.00598
103 1 46.8096 1.84787 -0.104723 46.8096 1.84787 -0.104723
104 2 48.9293 1.85058 1.25576 48.9293 1.85058 1.25576
105 2 48.4824 1.97976 -1.88959 48.4824 1.97976 -1.88959
106 1 49.5783 3.71976 -0.264909 49.5783 3.71976 -0.264909
107 2 51.6832 3.55536 1.15663 51.6832 3.55536 1.15663
108 2 51.4866 3.80167 -1.95062 51.4866 3.80167 -1.95062
109 1 1.10537 5.5763 -0.39477 1.10537 5.5763 -0.39477
110 2 2.86441 5.55899 1.42371 2.86441 5.55899 1.42371
111 2 3.12583 5.64532 -1.89882 3.12583 5.64532 -1.89882
112 1 3.89146 7.40439 -0.127641 3.89146 7.40439 -0.127641
113 2 5.78987 7.33752 1.58958 5.78987 7.33752 1.58958
114 2 5.88684 7.42947 -1.64715 5.88684 7.42947 -1.64715
115 1 6.71237 5.49884 -0.0130962 6.71237 5.49884 -0.0130962
116 2 8.44916 5.47369 1.75878 8.44916 5.47369 1.75878
117 2 8.82284 5.41859 -1.49115 8.82284 5.41859 -1.49115
118 1 9.57825 7.37251 0.13594 9.57825 7.37251 0.13594
119 2 11.605 7.44266 1.67305 11.605 7.44266 1.67305
120 2 11.481 7.42993 -1.56281 11.481 7.42993 -1.56281
121 1 12.4332 5.54972 0.00828466 12.4332 5.54972 0.00828466
122 2 14.2843 5.49558 1.56523 14.2843 5.49558 1.56523
123 2 14.4133 5.59739 -1.53166 14.4133 5.59739 -1.53166
124 1 15.2008 7.36855 0.00784465 15.2008 7.36855 0.00784465
125 2 17.3145 7.40535 1.57571 17.3145 7.40535 1.57571
126 2 17.1618 7.264 -1.62873 17.1618 7.264 -1.62873
127 1 18.1473 5.52811 0.0705276 18.1473 5.52811 0.0705276
128 2 20.1528 5.57506 1.45807 20.1528 5.57506 1.45807
129 2 19.8837 5.32668 -1.68905 19.8837 5.32668 -1.68905
130 1 20.951 7.43602 -0.330108 20.951 7.43602 -0.330108
131 2 22.9846 7.28309 1.18183 22.9846 7.28309 1.18183
132 2 22.8616 7.47808 -1.95561 22.8616 7.47808 -1.95561
133 1 23.8629 5.484 -0.390077 23.8629 5.484 -0.390077
134 2 25.7092 5.55149 1.24724 25.7092 5.55149 1.24724
135 2 25.9456 5.47032 -1.98888 25.9456 5.47032 -1.98888
136 1 26.6758 7.26173 -0.365333 26.6758 7.26173 -0.365333
137 2 28.6394 7.49363 1.21055 28.6394 7.49363 1.21055
138 2 28.6641 7.16855 -1.9432 28.6641 7.16855 -1.9432
139 1 29.5823 5.58734 -0.190947 29.5823 5.58734 -0.190947
140 2 31.6191 5.79347 1.39409 31.6191 5.79347 1.39409
141 2 31.5882 5.40783 -1.79794 31.5882 5.40783 -1.79794
142 1 32.5441 7.35708 -0.304383 32.5441 7.35708 -0.304383
143 2 34.5364 7.45106 1.35685 34.5364 7.45106 1.35685
144 2 34.3905 7.30999 -1.97798 34.3905 7.30999 -1.97798
145 1 35.37 5.56448 -0.273365 35.37 5.56448 -0.273365
146 2 37.4714 5.40765 1.22226 37.4714 5.40765 1.22226
147 2 37.107 5.55122 -2.07598 37.107 5.55122 -2.07598
148 1 38.1915 7.21649 -0.462627 38.1915 7.21649 -0.462627
149 2 40.0038 7.30079 1.17646 40.0038 7.30079 1.17646
150 2 40.242 7.20067 -2.05887 40.242 7.20067 -2.05887
151 1 40.9791 5.48786 -0.369164 40.9791 5.48786 -0.369164
152 2 43.0097 5.48646 1.03097 43.0097 5.48646 1.03097
153 2 42.8471 5.42007 -2.11605 42.8471 5.42007 -2.11605
154 1 43.8565 7.37382 -0.705207 43.8565 7.37382 -0.705207
155 2 45.7735 7.43749 1.03099 45.7735 7.43749 1.03099
156 2 45.9027 7.42027 -2.22469 45.9027 7.42027 -2.22469
157 1 46.7646 5.6414 -0.625678 46.7646 5.6414 -0.625678
158 2 48.5804 5.72676 1.06819 48.5804 5.72676 1.06819
159 2 48.6209 5.42703 -2.16628 48.6209 5.42703 -2.16628
160 1 49.6255 7.29253 -0.607246 49.6255 7.29253 -0.607246
161 2 51.3292 7.22238 1.18653 51.3292 7.22238 1.18653
162 2 51.727 7.2814 -1.99755 51.727 7.2814 -1.99755
163 1 1.01101 9.18292 -0.302393 1.01101 9.18292 -0.302393
164 2 2.94564 9.25345 1.40299 2.94564 9.25345 1.40299
165 2 3.02476 9.22766 -1.81917 3.02476 9.22766 -1.81917
166 1 3.79375 11.0843 -0.199548 3.79375 11.0843 -0.199548
167 2 5.68444 11.0638 1.50627 5.68444 11.0638 1.50627
168 2 5.6875 11.0789 -1.75177 5.6875 11.0789 -1.75177
169 1 6.68336 9.29693 0.036107 6.68336 9.29693 0.036107
170 2 8.59618 9.07863 1.79445 8.59618 9.07863 1.79445
171 2 8.68309 9.28158 -1.49921 8.68309 9.28158 -1.49921
172 1 9.53245 10.9999 0.255967 9.53245 10.9999 0.255967
173 2 11.5482 11.0264 1.74442 11.5482 11.0264 1.74442
174 2 11.2204 11.0957 -1.60772 11.2204 11.0957 -1.60772
175 1 12.3737 9.18934 0.0328976 12.3737 9.18934 0.0328976
176 2 14.2711 9.06721 1.60846 14.2711 9.06721 1.60846
177 2 14.3316 9.09837 -1.57398 14.3316 9.09837 -1.57398
178 1 15.1716 10.9024 0.103263 15.1716 10.9024 0.103263
179 2 17.2434 11.1336 1.53531 17.2434 11.1336 1.53531
180 2 16.969 10.8486 -1.72407 16.969 10.8486 -1.72407
181 1 18.0868 9.17095 -0.139357 18.0868 9.17095 -0.139357
182 2 20.2554 9.24531 1.21078 20.2554 9.24531 1.21078
183 2 19.7857 9.09292 -1.91964 19.7857 9.09292 -1.91964
184 1 20.8962 10.9851 -0.581571 20.8962 10.9851 -0.581571
185 2 22.7051 11.0788 1.21823 22.7051 11.0788 1.21823
186 2 23.0222 10.9916 -2.08547 23.0222 10.9916 -2.08547
187 1 23.8528 9.21514 -0.338478 23.8528 9.21514 -0.338478
188 2 25.7095 9.18261 1.23591 25.7095 9.18261 1.23591
189 2 25.6159 9.02275 -2.00799 25.6159 9.02275 -2.00799
190 1 26.5965 10.9853 -0.552531 26.5965 10.9853 -0.552531
191 2 28.538 10.9872 1.09532 28.538 10.9872 1.09532
192 2 28.5954 11.0889 -2.02388 28.5954 11.0889 -2.02388
193 1 29.5598 9.13137 -0.477636 29.5598 9.13137 -0.477636
194 2 31.3734 9.10776 1.29377 31.3734 9.10776 1.29377
195 2 31.7417 9.22954 -1.95435 31.7417 9.22954 -1.95435
196 1 32.4101 10.9417 -0.284427 32.4101 10.9417 -0.284427
197 2 34.387 11.0458 1.14102 34.387 11.0458 1.14102
198 2 34.2983 10.9371 -1.97918 34.2983 10.9371 -1.97918
199 1 35.4031 9.16343 -0.463385 35.4031 9.16343 -0.463385
200 2 37.3688 9.26031 1.12573 37.3688 9.26031 1.12573
201 2 37.2529 9.10641 -2.07955 37.2529 9.10641 -2.07955
202 1 38.2181 10.9657 -0.668197 38.2181 10.9657 -0.668197
203 2 40.1434 11.0798 1.00715 40.1434 11.0798 1.00715
204 2 40.1176 10.8781 -2.32434 40.1176 10.8781 -2.32434
205 1 40.9909 9.11163 -0.508015 40.9909 9.11163 -0.508015
206 2 43.056 9.27433 1.02167 43.056 9.27433 1.02167
207 2 42.7055 9.16053 -2.22933 42.7055 9.16053 -2.22933
208 1 43.8178 11.044 -0.74715 43.8178 11.044 -0.74715
209 2 45.6534 11.1338 0.988637 45.6534 11.1338 0.988637
210 2 45.727 11.0214 -2.34507 45.727 11.0214 -2.34507
211 1 46.7761 9.20834 -0.520933 46.7761 9.20834 -0.520933
212 2 48.7207 9.17185 1.08234 48.7207 9.17185 1.08234
213 2 48.6444 9.06657 -2.20508 48.6444 9.06657 -2.20508
214 1 49.5901 11.1446 -0.556929 49.5901 11.1446 -0.556929
215 2 51.3096 10.9527 1.31926 51.3096 10.9527 1.31926
216 2 51.7691 11.1872 -1.93347 51.7691 11.1872 -1.93347
217 1 0.875676 12.8818 -0.104298 0.875676 12.8818 -0.104298
218 2 2.7682 12.7665 1.52106 2.7682 12.7665 1.52106
219 2 2.94813 12.9687 -1.64269 2.94813 12.9687 -1.64269
220 1 3.88309 14.6896 0.1227 3.88309 14.6896 0.1227
221 2 5.90823 14.642 1.63787 5.90823 14.642 1.63787
222 2 5.69255 14.6216 -1.5974 5.69255 14.6216 -1.5974
223 1 6.66787 12.8621 0.0498522 6.66787 12.8621 0.0498522
224 2 8.56511 12.9171 1.73862 8.56511 12.9171 1.73862
225 2 8.63683 12.7566 -1.50771 8.63683 12.7566 -1.50771
226 1 9.60123 14.6262 0.105535 9.60123 14.6262 0.105535
227 2 11.5968 14.7249 1.62708 11.5968 14.7249 1.62708
228 2 11.2929 14.6662 -1.67065 11.2929 14.6662 -1.67065
229 1 12.3037 12.7666 -0.00781038 12.3037 12.7666 -0.00781038
230 2 14.2203 12.8563 1.56997 14.2203 12.8563 1.56997
231 2 14.1723 12.6986 -1.7048 14.1723 12.6986 -1.7048
232 1 15.0794 14.5828 -0.206122 15.0794 14.5828 -0.206122
233 2 17.1171 14.6892 1.31 17.1171 14.6892 1.31
234 2 16.994 14.5078 -1.88014 16.994 14.5078 -1.88014
235 1 18.0066 12.7428 -0.346583 18.0066 12.7428 -0.346583
236 2 20.0194 12.7701 1.16238 20.0194 12.7701 1.16238
237 2 20.0147 13.0014 -2.01206 20.0147 13.0014 -2.01206
238 1 20.8555 14.6923 -0.331765 20.8555 14.6923 -0.331765
239 2 22.8381 14.7639 1.20932 22.8381 14.7639 1.20932
240 2 22.8693 14.7811 -2.02064 22.8693 14.7811 -2.02064
241 1 23.7275 12.912 -0.361458 23.7275 12.912 -0.361458
242 2 25.7443 12.7392 1.15182 25.7443 12.7392 1.15182
243 2 25.6085 13.0603 -1.97019 25.6085 13.0603 -1.97019
244 1 26.5992 14.6619 -0.357201 26.5992 14.6619 -0.357201
245 2 28.5379 14.8444 1.2135 28.5379 14.8444 1.2135
246 2 28.6072 14.5727 -2.02716 28.6072 14.5727 -2.02716
247 1 29.5101 12.8742 -0.312169 29.5101 12.8742 -0.312169
248 2 31.4361 12.8252 1.18714 31.4361 12.8252 1.18714
249 2 31.4435 12.8121 -1.9122 31.4435 12.8121 -1.9122
250 1 32.4182 14.6359 -0.360091 32.4182 14.6359 -0.360091
251 2 34.3047 14.5014 1.17399 34.3047 14.5014 1.17399
252 2 34.2303 14.6447 -2.02583 34.2303 14.6447 -2.02583
253 1 35.2736 12.8032 -0.495832 35.2736 12.8032 -0.495832
254 2 37.2797 12.6986 1.03658 37.2797 12.6986 1.03658
255 2 37.1473 12.8527 -2.22256 37.1473 12.8527 -2.22256
256 1 38.1206 14.6282 -0.437858 38.1206 14.6282 -0.437858
257 2 40.3168 14.5882 0.958668 40.3168 14.5882 0.958668
258 2 39.9254 14.674 -2.20477 39.9254 14.674 -2.20477
259 1 40.9371 12.8088 -0.829745 40.9371 12.8088 -0.829745
260 2 42.9633 12.8542 0.88252 42.9633 12.8542 0.88252
261 2 42.8727 12.8425 -2.45124 42.8727 12.8425 -2.45124
262 1 43.7444 14.7537 -0.721483 43.7444 14.7537 -0.721483
263 2 45.5817 14.699 0.958799 45.5817 14.699 0.958799
264 2 45.7223 14.891 -2.33005 45.7223 14.891 -2.33005
265 1 46.7077 12.9031 -0.794158 46.7077 12.9031 -0.794158
266 2 48.5151 12.8332 1.04403 48.5151 12.8332 1.04403
267 2 48.8172 13.0841 -2.15246 48.8172 13.0841 -2.15246
268 1 49.5802 14.7675 -0.284552 49.5802 14.7675 -0.284552
269 2 51.3601 14.6962 1.44058 51.3601 14.6962 1.44058
270 2 51.6185 14.806 -1.66524 51.6185 14.806 -1.66524
271 1 0.963507 16.6289 0.00204693 0.963507 16.6289 0.00204693
272 2 2.83629 16.5043 1.76749 2.83629 16.5043 1.76749
273 2 3.05054 16.45 -1.47476 3.05054 16.45 -1.47476
274 1 3.83347 18.4308 0.0874368 3.83347 18.4308 0.0874368
275 2 6.05733 18.4402 1.49213 6.05733 18.4402 1.49213
276 2 5.48964 18.2813 -1.71405 5.48964 18.2813 -1.71405
277 1 6.71476 16.498 -0.115182 6.71476 16.498 -0.115182
278 2 8.61414 16.4016 1.56909 8.61414 16.4016 1.56909
279 2 8.67208 16.4899 -1.58143 8.67208 16.4899 -1.58143
280 1 9.57379 18.3672 -0.0143584 9.57379 18.3672 -0.0143584
281 2 11.3467 18.4038 1.56041 11.3467 18.4038 1.56041
282 2 11.3092 18.3245 -1.64645 11.3092 18.3245 -1.64645
283 1 12.2902 16.5558 -0.12353 12.2902 16.5558 -0.12353
284 2 14.2861 16.5119 1.39251 14.2861 16.5119 1.39251
285 2 14.0876 16.3557 -1.84292 14.0876 16.3557 -1.84292
286 1 15.1765 18.2808 -0.302365 15.1765 18.2808 -0.302365
287 2 17.1996 18.3367 1.13028 17.1996 18.3367 1.13028
288 2 17.0891 18.1779 -1.98796 17.0891 18.1779 -1.98796
289 1 17.9815 16.4614 -0.41899 17.9815 16.4614 -0.41899
290 2 19.885 16.6681 1.30228 19.885 16.6681 1.30228
291 2 20.0947 16.5545 -1.90664 20.0947 16.5545 -1.90664
292 1 20.8856 18.4919 -0.280086 20.8856 18.4919 -0.280086
293 2 22.9604 18.5004 1.23667 22.9604 18.5004 1.23667
294 2 22.8018 18.433 -1.89682 22.8018 18.433 -1.89682
295 1 23.7249 16.6437 -0.445744 23.7249 16.6437 -0.445744
296 2 25.7191 16.6482 1.14764 25.7191 16.6482 1.14764
297 2 25.5541 16.5626 -2.15845 25.5541 16.5626 -2.15845
298 1 26.7575 18.403 -0.583918 26.7575 18.403 -0.583918
299 2 28.5284 18.3394 1.19719 28.5284 18.3394 1.19719
300 2 28.6078 18.2194 -2.10779 28.6078 18.2194 -2.10779
301 1 29.5748 16.4283 -0.467334 29.5748 16.4283 -0.467334
302 2 31.3763 16.478 1.30451 31.3763 16.478 1.30451
303 2 31.6983 16.4977 -2.00295 31.6983 16.4977 -2.00295
304 1 32.3461 18.3483 -0.311407 32.3461 18.3483 -0.311407
305 2 34.3571 18.4017 1.30434 34.3571 18.4017 1.30434
306 2 34.1701 18.331 -1.97963 34.1701 18.331 -1.97963
307 1 35.1849 16.3777 -0.395987 35.1849 16.3777 -0.395987
308 2 37.211 16.647 1.17422 37.211 16.647 1.17422
309 2 37.1262 16.3479 -2.05469 37.1262 16.3479 -2.05469
310 1 38.0733 18.3812 -0.565515 38.0733 18.3812 -0.565515
311 2 40.0318 18.2614 0.947312 40.0318 18.2614 0.947312
312 2 39.9832 18.3974 -2.33125 39.9832 18.3974 -2.33125
313 1 40.8995 16.52 -0.708797 40.8995 16.52 -0.708797
314 2 42.8137 16.5522 0.921045 42.8137 16.5522 0.921045
315 2 42.914 16.6275 -2.25581 42.914 16.6275 -2.25581
316 1 43.7993 18.3959 -0.57253 43.7993 18.3959 -0.57253
317 2 45.564 18.0411 1.25239 45.564 18.0411 1.25239
318 2 45.9267 18.5976 -1.98625 45.9267 18.5976 -1.98625
319 1 46.6516 16.5533 -0.546699 46.6516 16.5533 -0.546699
320 2 48.4108 16.4483 1.30396 48.4108 16.4483 1.30396
321 2 48.727 16.5776 -1.91019 48.727 16.5776 -1.91019
322 1 49.4919 18.4457 -0.143039 49.4919 18.4457 -0.143039
323 2 51.3178 18.4383 1.56366 51.3178 18.4383 1.56366
324 2 51.6127 18.3669 -1.68261 51.6127 18.3669 -1.68261
325 1 1.01142 20.3179 0.0414562 1.01142 20.3179 0.0414562
326 2 3.04784 20.441 1.56771 3.04784 20.441 1.56771
327 2 2.9079 20.0517 -1.61988 2.9079 20.0517 -1.61988
328 1 3.7747 22.0834 -0.234082 3.7747 22.0834 -0.234082
329 2 5.70778 22.1009 1.38009 5.70778 22.1009 1.38009
330 2 5.74736 21.9401 -1.83858 5.74736 21.9401 -1.83858
331 1 6.64049 20.193 -0.235349 6.64049 20.193 -0.235349
332 2 8.48136 20.2322 1.55748 8.48136 20.2322 1.55748
333 2 8.75613 20.2587 -1.58234 8.75613 20.2587 -1.58234
334 1 9.55354 22.0625 0.113282 9.55354 22.0625 0.113282
335 2 11.5509 21.9754 1.63383 11.5509 21.9754 1.63383
336 2 11.3765 22.1146 -1.546 11.3765 22.1146 -1.546
337 1 12.4103 20.2512 -0.0266197 12.4103 20.2512 -0.0266197
338 2 14.5336 20.1036 1.4251 14.5336 20.1036 1.4251
339 2 14.2947 20.3695 -1.73005 14.2947 20.3695 -1.73005
340 1 15.2935 22.0791 -0.161431 15.2935 22.0791 -0.161431
341 2 17.269 21.9078 1.26087 17.269 21.9078 1.26087
342 2 17.0298 22.2673 -1.86945 17.0298 22.2673 -1.86945
343 1 18.1623 20.199 -0.529848 18.1623 20.199 -0.529848
344 2 19.975 20.3994 1.3131 19.975 20.3994 1.3131
345 2 20.2336 20.2379 -1.93609 20.2336 20.2379 -1.93609
346 1 20.976 22.139 -0.251646 20.976 22.139 -0.251646
347 2 23.062 22.3107 1.05438 23.062 22.3107 1.05438
348 2 22.8001 22.1004 -2.05762 22.8001 22.1004 -2.05762
349 1 23.8194 20.318 -0.368056 23.8194 20.318 -0.368056
350 2 25.9052 20.2278 1.03006 25.9052 20.2278 1.03006
351 2 25.7051 20.292 -2.11993 25.7051 20.292 -2.11993
352 1 26.6539 22.1454 -0.703773 26.6539 22.1454 -0.703773
353 2 28.4509 22.0631 1.03088 28.4509 22.0631 1.03088
354 2 28.7074 22.0605 -2.162 28.7074 22.0605 -2.162
355 1 29.5323 20.1529 -0.446332 29.5323 20.1529 -0.446332
356 2 31.3444 20.1722 1.2732 31.3444 20.1722 1.2732
357 2 31.4763 20.1929 -2.02165 31.4763 20.1929 -2.02165
358 1 32.3071 21.9485 -0.350971 32.3071 21.9485 -0.350971
359 2 34.261 21.9343 1.27908 34.261 21.9343 1.27908
360 2 34.1942 21.9849 -1.94755 34.1942 21.9849 -1.94755
361 1 35.1846 20.1459 -0.462042 35.1846 20.1459 -0.462042
362 2 37.2051 20.2297 1.05605 37.2051 20.2297 1.05605
363 2 37.0137 20.1182 -2.24013 37.0137 20.1182 -2.24013
364 1 37.9838 22.1396 -0.544214 37.9838 22.1396 -0.544214
365 2 39.9922 22.0659 1.05241 39.9922 22.0659 1.05241
366 2 39.9523 22.1443 -2.14644 39.9523 22.1443 -2.14644
367 1 40.9537 20.1752 -0.670325 40.9537 20.1752 -0.670325
368 2 42.8123 20.1278 1.05098 42.8123 20.1278 1.05098
369 2 42.9147 20.2162 -2.25519 42.9147 20.2162 -2.25519
370 1 43.7459 22.1034 -0.604458 43.7459 22.1034 -0.604458
371 2 45.3124 21.9918 1.32623 45.3124 21.9918 1.32623
372 2 46.0302 22.0938 -1.68377 46.0302 22.0938 -1.68377
373 1 46.6464 20.199 -0.0212483 46.6464 20.199 -0.0212483
374 2 48.601 20.1721 1.61334 48.601 20.1721 1.61334
375 2 48.5469 20.3169 -1.59335 48.5469 20.3169 -1.59335
376 1 49.5442 22.0008 0.176075 49.5442 22.0008 0.176075
377 2 51.6263 22.1762 1.58163 51.6263 22.1762 1.58163
378 2 51.5464 22.086 -1.58827 51.5464 22.086 -1.58827
379 1 1.02804 23.9276 -0.106994 1.02804 23.9276 -0.106994
380 2 3.08897 23.9415 1.32541 3.08897 23.9415 1.32541
381 2 2.81309 23.8118 -1.85927 2.81309 23.8118 -1.85927
382 1 3.85805 25.7955 -0.403955 3.85805 25.7955 -0.403955
383 2 5.59323 25.7755 1.33025 5.59323 25.7755 1.33025
384 2 6.03095 25.7423 -1.87166 6.03095 25.7423 -1.87166
385 1 6.64328 23.9044 -0.211741 6.64328 23.9044 -0.211741
386 2 8.44558 23.8261 1.61129 8.44558 23.8261 1.61129
387 2 8.6864 23.8901 -1.64954 8.6864 23.8901 -1.64954
388 1 9.52046 25.6957 0.0633929 9.52046 25.6957 0.0633929
389 2 11.4528 25.5582 1.74029 11.4528 25.5582 1.74029
390 2 11.5866 25.7108 -1.43047 11.5866 25.7108 -1.43047
391 1 12.3573 23.8055 0.0445077 12.3573 23.8055 0.0445077
392 2 14.4069 23.7739 1.60615 14.4069 23.7739 1.60615
393 2 14.2471 23.8758 -1.59739 14.2471 23.8758 -1.59739
394 1 15.2883 25.7591 -0.0482011 15.2883 25.7591 -0.0482011
395 2 17.2071 25.8472 1.51239 17.2071 25.8472 1.51239
396 2 17.1037 25.751 -1.83256 17.1037 25.751 -1.83256
397 1 18.1547 23.9213 -0.232019 18.1547 23.9213 -0.232019
398 2 20.089 23.9585 1.39707 20.089 23.9585 1.39707
399 2 20.0313 23.9783 -1.89065 20.0313 23.9783 -1.89065
400 1 20.9902 25.8649 -0.327231 20.9902 25.8649 -0.327231
401 2 23.0927 25.7857 1.07797 23.0927 25.7857 1.07797
402 2 22.8327 25.8166 -2.11379 22.8327 25.8166 -2.11379
403 1 23.8621 24.027 -0.63798 23.8621 24.027 -0.63798
404 2 25.7918 23.9448 0.960072 25.7918 23.9448 0.960072
405 2 25.8853 24.0972 -2.20646 25.8853 24.0972 -2.20646
406 1 26.6696 25.8095 -0.539147 26.6696 25.8095 -0.539147
407 2 28.6391 25.9255 1.1131 28.6391 25.9255 1.1131
408 2 28.6411 25.9433 -2.14957 28.6411 25.9433 -2.14957
409 1 29.5059 24.0145 -0.495962 29.5059 24.0145 -0.495962
410 2 31.4056 24.1828 1.13753 31.4056 24.1828 1.13753
411 2 31.3639 23.7732 -2.04088 31.3639 23.7732 -2.04088
412 1 32.3069 25.7897 -0.639213 32.3069 25.7897 -0.639213
413 2 34.0348 25.8035 1.27774 34.0348 25.8035 1.27774
414 2 34.4859 25.982 -1.89588 34.4859 25.982 -1.89588
415 1 35.2258 23.8652 -0.303647 35.2258 23.8652 -0.303647
416 2 37.2787 23.8649 1.17199 37.2787 23.8649 1.17199
417 2 37.0669 23.9941 -2.01585 37.0669 23.9941 -2.01585
418 1 38.05 25.7624 -0.347845 38.05 25.7624 -0.347845
419 2 40.0573 25.8259 1.1775 40.0573 25.8259 1.1775
420 2 39.9073 25.7173 -2.05551 39.9073 25.7173 -2.05551
421 1 40.9279 23.969 -0.519825 40.9279 23.969 -0.519825
422 2 42.7648 23.9111 1.05218 42.7648 23.9111 1.05218
423 2 42.7174 24.0571 -2.16137 42.7174 24.0571 -2.16137
424 1 43.7618 25.7861 -0.41178 43.7618 25.7861 -0.41178
425 2 45.4735 25.9603 1.47993 45.4735 25.9603 1.47993
426 2 45.8908 25.6737 -1.84211 45.8908 25.6737 -1.84211
427 1 46.6124 23.9356 0.0589122 46.6124 23.9356 0.0589122
428 2 48.5008 24.0026 1.60113 48.5008 24.0026 1.60113
429 2 48.5298 23.7747 -1.56345 48.5298 23.7747 -1.56345
430 1 49.5901 25.7796 -0.0794046 49.5901 25.7796 -0.0794046
431 2 51.4082 25.5422 1.55558 51.4082 25.5422 1.55558
432 2 51.5361 25.8419 -1.6552 51.5361 25.8419 -1.6552
433 1 1.03305 27.4727 0.0799618 1.03305 27.4727 0.0799618
434 2 3.09838 27.415 1.42985 3.09838 27.415 1.42985
435 2 2.77869 27.6078 -1.80768 2.77869 27.6078 -1.80768
436 1 3.83996 29.223 -0.175279 3.83996 29.223 -0.175279
437 2 5.71677 29.2627 1.44416 5.71677 29.2627 1.44416
438 2 5.82903 29.3184 -1.70197 5.82903 29.3184 -1.70197
439 1 6.72493 27.5158 -0.206999 6.72493 27.5158 -0.206999
440 2 8.55707 27.5686 1.43402 8.55707 27.5686 1.43402
441 2 8.73532 27.4135 -1.74949 8.73532 27.4135 -1.74949
442 1 9.5705 29.2694 -0.125763 9.5705 29.2694 -0.125763
443 2 11.325 29.4731 1.57777 11.325 29.4731 1.57777
444 2 11.5803 29.1584 -1.56052 11.5803 29.1584 -1.56052
445 1 12.3509 27.5034 0.313458 12.3509 27.5034 0.313458
446 2 14.4304 27.5048 1.72341 14.4304 27.5048 1.72341
447 2 14.2437 27.5597 -1.47187 14.2437 27.5597 -1.47187
448 1 15.1832 29.3827 0.165279 15.1832 29.3827 0.165279
449 2 17.3031 29.3661 1.6619 17.3031 29.3661 1.6619
450 2 16.9902 29.4461 -1.60718 16.9902 29.4461 -1.60718
451 1 18.0687 27.6575 -0.158796 18.0687 27.6575 -0.158796
452 2 20.1629 27.6307 1.34005 20.1629 27.6307 1.34005
453 2 19.8998 27.7058 -1.89263 19.8998 27.7058 -1.89263
454 1 20.9852 29.5414 -0.349951 20.9852 29.5414 -0.349951
455 2 22.9659 29.4089 1.21483 22.9659 29.4089 1.21483
456 2 22.7836 29.5887 -1.99973 22.7836 29.5887 -1.99973
457 1 23.8448 27.7009 -0.584288 23.8448 27.7009 -0.584288
458 2 25.7249 27.6792 0.952558 25.7249 27.6792 0.952558
459 2 25.8792 27.7155 -2.17647 25.8792 27.7155 -2.17647
460 1 26.6707 29.5575 -0.488498 26.6707 29.5575 -0.488498
461 2 28.6536 29.515 1.14245 28.6536 29.515 1.14245
462 2 28.6324 29.5023 -2.02388 28.6324 29.5023 -2.02388
463 1 29.4659 27.7162 -0.489353 29.4659 27.7162 -0.489353
464 2 31.3293 27.4363 1.10093 31.3293 27.4363 1.10093
465 2 31.293 27.722 -2.24707 31.293 27.722 -2.24707
466 1 32.3525 29.3448 -0.463459 32.3525 29.3448 -0.463459
467 2 34.2173 29.5869 1.30135 34.2173 29.5869 1.30135
468 2 34.3749 29.3875 -1.90876 34.3749 29.3875 -1.90876
469 1 35.2726 27.645 -0.125153 35.2726 27.645 -0.125153
470 2 37.327 27.724 1.30813 37.327 27.724 1.30813
471 2 37.0121 27.5727 -1.86252 37.0121 27.5727 -1.86252
472 1 38.1487 29.4356 -0.323897 38.1487 29.4356 -0.323897
473 2 40.1813 29.5511 1.20042 40.1813 29.5511 1.20042
474 2 39.9571 29.3955 -2.09407 39.9571 29.3955 -2.09407
475 1 40.887 27.6248 -0.505618 40.887 27.6248 -0.505618
476 2 42.9105 27.6902 1.17042 42.9105 27.6902 1.17042
477 2 42.7647 27.5971 -2.14027 42.7647 27.5971 -2.14027
478 1 43.8622 29.4808 -0.60649 43.8622 29.4808 -0.60649
479 2 45.5475 29.3519 1.32668 45.5475 29.3519 1.32668
480 2 46.0113 29.5217 -1.79592 46.0113 29.5217 -1.79592
481 1 46.6835 27.6017 -0.098963 46.6835 27.6017 -0.098963
482 2 48.7516 27.6896 1.41443 48.7516 27.6896 1.41443
483 2 48.6455 27.4999 -1.76737 48.6455 27.4999 -1.76737
484 1 49.5484 29.4653 -0.234305 49.5484 29.4653 -0.234305
485 2 51.3273 29.6061 1.42209 51.3273 29.6061 1.42209
486 2 51.5836 29.1878 -1.71233 51.5836 29.1878 -1.71233
487 1 0.989301 31.2958 -0.292261 0.989301 31.2958 -0.292261
488 2 2.99974 31.0774 1.44948 2.99974 31.0774 1.44948
489 2 3.14176 31.2444 -1.75477 3.14176 31.2444 -1.75477
490 1 3.98787 32.9375 0.0808534 3.98787 32.9375 0.0808534
491 2 5.95204 33.2057 1.65752 5.95204 33.2057 1.65752
492 2 5.76435 32.99 -1.72528 5.76435 32.99 -1.72528
493 1 6.72385 31.2329 -0.0477353 6.72385 31.2329 -0.0477353
494 2 8.75425 31.2029 1.49099 8.75425 31.2029 1.49099
495 2 8.5676 31.2522 -1.79368 8.5676 31.2522 -1.79368
496 1 9.55752 33.1689 -0.0970132 9.55752 33.1689 -0.0970132
497 2 11.474 33.087 1.4736 11.474 33.087 1.4736
498 2 11.453 33.2631 -1.80675 11.453 33.2631 -1.80675
499 1 12.3989 31.2026 -0.213383 12.3989 31.2026 -0.213383
500 2 14.1757 31.3119 1.61452 14.1757 31.3119 1.61452
501 2 14.4515 31.0292 -1.65352 14.4515 31.0292 -1.65352
502 1 15.3284 33.0139 -0.189805 15.3284 33.0139 -0.189805
503 2 17.1378 33.0692 1.52296 17.1378 33.0692 1.52296
504 2 17.298 33.0869 -1.71843 17.298 33.0869 -1.71843
505 1 18.1022 31.2662 -0.0334889 18.1022 31.2662 -0.0334889
506 2 20.1656 31.2428 1.40915 20.1656 31.2428 1.40915
507 2 19.9739 31.308 -1.79199 19.9739 31.308 -1.79199
508 1 20.9303 33.0397 -0.16251 20.9303 33.0397 -0.16251
509 2 22.739 32.9146 1.35856 22.739 32.9146 1.35856
510 2 22.8906 33.2057 -1.76437 22.8906 33.2057 -1.76437
511 1 23.8081 31.3478 -0.407465 23.8081 31.3478 -0.407465
512 2 25.6603 30.9804 1.29197 25.6603 30.9804 1.29197
513 2 25.7983 31.5774 -1.87685 25.7983 31.5774 -1.87685
514 1 26.6879 33.0895 -0.0514074 26.6879 33.0895 -0.0514074
515 2 28.7071 32.9982 1.3771 28.7071 32.9982 1.3771
516 2 28.4779 33.2369 -1.84975 28.4779 33.2369 -1.84975
517 1 29.4787 31.3428 -0.461473 29.4787 31.3428 -0.461473
518 2 31.3738 31.2526 1.14139 31.3738 31.2526 1.14139
519 2 31.5488 31.3305 -1.9752 31.5488 31.3305 -1.9752
520 1 32.3924 33.0944 -0.267693 32.3924 33.0944 -0.267693
521 2 34.4183 33.012 1.2788 34.4183 33.012 1.2788
522 2 34.2858 33.1018 -1.99635 34.2858 33.1018 -1.99635
523 1 35.2812 31.2694 -0.311849 35.2812 31.2694 -0.311849
524 2 37.2776 31.5115 1.15877 37.2776 31.5115 1.15877
525 2 37.1813 31.0786 -2.03319 37.1813 31.0786 -2.03319
526 1 38.1173 33.1045 -0.562019 38.1173 33.1045 -0.562019
527 2 39.9928 33.0317 1.15516 39.9928 33.0317 1.15516
528 2 40.0416 33.2556 -2.13024 40.0416 33.2556 -2.13024
529 1 40.9634 31.2892 -0.524209 40.9634 31.2892 -0.524209
530 2 42.8975 31.2268 1.12084 42.8975 31.2268 1.12084
531 2 42.9396 31.3396 -2.1425 42.9396 31.3396 -2.1425
532 1 43.8489 33.1186 -0.477069 43.8489 33.1186 -0.477069
533 2 45.6119 33.2488 1.22591 45.6119 33.2488 1.22591
534 2 45.8002 33.0137 -1.94535 45.8002 33.0137 -1.94535
535 1 46.6898 31.249 -0.0519937 46.6898 31.249 -0.0519937