ITEM: TIMESTEP
446000
ITEM: NUMBER OF ATOMS
810
ITEM: BOX BOUNDS pp pp pp
8.0341777045796159e-01 5.2214187229542503e+01
-2.9590201560127716e-01 5.1312117015600144e+01
-1.0000000000000000e+01 1.0000000000000000e+01
ITEM: ATOMS id type x y z xu yu zu
1 1 1.01382 -0.0237756 -0.282597 1.01382 -0.0237756 -0.282597
2 2 3.01423 -0.0639836 1.16368 3.01423 -0.0639836 1.16368
3 2 2.80147 0.0958313 -2.01195 2.80147 0.0958313 -2.01195
4 1 3.8788 1.62017 -0.409405 3.8788 1.62017 -0.409405
5 2 5.98458 1.68601 1.16579 5.98458 1.68601 1.16579
6 2 5.51129 1.83629 -2.11742 5.51129 1.83629 -2.11742
7 1 6.70662 -0.0573305 -0.773141 6.70662 -0.0573305 -0.773141
8 2 8.42676 -0.176668 1.08405 8.42676 -0.176668 1.08405
9 2 8.87685 0.0010956 -2.24986 8.87685 0.0010956 -2.24986
10 1 9.60771 1.60526 -0.411276 9.60771 1.60526 -0.411276
11 2 11.5353 1.43586 1.09847 11.5353 1.43586 1.09847
12 2 11.5185 1.6521 -2.13554 11.5185 1.6521 -2.13554
13 1 12.4366 -0.0950121 -0.577592 12.4366 -0.0950121 -0.577592
14 2 14.3676 -0.0689524 1.07327 14.3676 -0.0689524 1.07327
15 2 14.3667 -0.126423 -2.24643 14.3667 -0.126423 -2.24643
16 1 15.3323 1.66942 -0.475962 15.3323 1.66942 -0.475962
17 2 17.1879 1.57795 1.26237 17.1879 1.57795 1.26237
18 2 17.3721 1.82903 -1.91284 17.3721 1.82903 -1.91284
19 1 18.1919 0.0332069 -0.427222 18.1919 0.0332069 -0.427222
20 2 20.1813 -0.0102783 1.16252 20.1813 -0.0102783 1.16252
21 2 20.0572 51.5196 -2.16139 20.0572 -0.0884415 -2.16139
22 1 21.0586 1.70609 -0.438262 21.0586 1.70609 -0.438262
23 2 22.9926 1.63101 1.15114 22.9926 1.63101 1.15114
24 2 22.9243 1.52553 -2.12511 22.9243 1.52553 -2.12511
25 1 23.758 -0.15821 -0.498511 23.758 -0.15821 -0.498511
26 2 25.4042 -0.210184 1.34766 25.4042 -0.210184 1.34766
27 2 25.861 -0.19856 -1.87652 25.861 -0.19856 -1.87652
28 1 26.5599 1.57069 -0.134814 26.5599 1.57069 -0.134814
29 2 28.6569 1.62451 1.2804 28.6569 1.62451 1.2804
30 2 28.3948 1.63429 -1.89294 28.3948 1.63429 -1.89294
31 1 29.442 -0.191203 -0.268856 29.442 -0.191203 -0.268856
32 2 31.3364 -0.0749248 1.43103 31.3364 -0.0749248 1.43103
33 2 31.4217 -0.0739853 -1.78281 31.4217 -0.0739853 -1.78281
34 1 32.3409 1.66368 -0.181592 32.3409 1.66368 -0.181592
35 2 34.2205 1.65561 1.41794 34.2205 1.65561 1.41794
36 2 34.2725 1.43235 -1.78679 34.2725 1.43235 -1.78679
37 1 35.2692 -0.132569 -0.0425562 35.2692 -0.132569 -0.0425562
38 2 37.1387 0.171745 1.52174 37.1387 0.171745 1.52174
39 2 37.1733 -0.350592 -1.66339 37.1733 -0.350592 -1.66339
40 1 38 1.57288 -0.381096 38 1.57288 -0.381096
41 2 39.7102 1.77298 1.45459 39.7102 1.77298 1.45459
42 2 40.2277 1.46766 -1.78143 40.2277 1.46766 -1.78143
43 1 40.9649 -0.0986804 0.117568 40.9649 -0.0986804 0.117568
44 2 43.073 -0.200944 1.53378 43.073 -0.200944 1.53378
45 2 42.8309 51.3971 -1.65465 42.8309 -0.210904 -1.65465
46 1 43.8448 1.57317 -0.108292 43.8448 1.57317 -0.108292
47 2 45.7565 1.6518 1.50566 45.7565 1.6518 1.50566
48 2 45.7645 1.71088 -1.69435 45.7645 1.71088 -1.69435
49 1 46.6911 -0.0424632 -0.168342 46.6911 -0.0424632 -0.168342
50 2 48.6673 0.0686699 1.43781 48.6673 0.0686699 1.43781
51 2 48.5249 -0.186355 -1.8677 48.5249 -0.186355 -1.8677
52 1 49.5942 1.59032 -0.386358 49.5942 1.59032 -0.386358
53 2 51.466 1.56416 1.40814 51.466 1.56416 1.40814
54 2 51.5461 1.68215 -1.91046 51.5461 1.68215 -1.91046
55 1 1.08374 3.32666 -0.106232 1.08374 3.32666 -0.106232
56 2 3.10971 3.37477 1.31406 3.10971 3.37477 1.31406
57 2 2.88082 3.36616 -1.87547 2.88082 3.36616 -1.87547
58 1 3.88877 5.15976 -0.478229 3.88877 5.15976 -0.478229
59 2 5.82893 5.18125 1.14336 5.82893 5.18125 1.14336
60 2 5.86765 5.16756 -2.10488 5.86765 5.16756 -2.10488
61 1 6.73761 3.4434 -0.503506 6.73761 3.4434 -0.503506
62 2 8.6755 3.56643 1.13411 8.6755 3.56643 1.13411
63 2 8.58154 3.38885 -2.0577 8.58154 3.38885 -2.0577
64 1 9.63924 5.08691 -0.601024 9.63924 5.08691 -0.601024
65 2 11.5499 4.93165 1.14905 11.5499 4.93165 1.14905
66 2 11.6525 5.02931 -2.13524 11.6525 5.02931 -2.13524
67 1 12.4749 3.3518 -0.438716 12.4749 3.3518 -0.438716
68 2 14.3587 3.38908 1.18501 14.3587 3.38908 1.18501
69 2 14.3187 3.45711 -2.10805 14.3187 3.45711 -2.10805
70 1 15.323 5.15186 -0.406004 15.323 5.15186 -0.406004
71 2 17.1751 5.13948 1.3072 17.1751 5.13948 1.3072
72 2 17.2764 5.11777 -1.93742 17.2764 5.11777 -1.93742
73 1 18.1306 3.40826 -0.225646 18.1306 3.40826 -0.225646
74 2 20.2066 3.51857 1.13879 20.2066 3.51857 1.13879
75 2 19.9052 3.37289 -2.05767 19.9052 3.37289 -2.05767
76 1 20.9724 5.16611 -0.578969 20.9724 5.16611 -0.578969
77 2 22.8523 5.22461 1.02015 22.8523 5.22461 1.02015
78 2 23.1094 5.09259 -2.2124 23.1094 5.09259 -2.2124
79 1 23.8996 3.32805 -0.502141 23.8996 3.32805 -0.502141
80 2 25.5065 3.44374 1.34534 25.5065 3.44374 1.34534
81 2 25.8787 3.28166 -1.93133 25.8787 3.28166 -1.93133
82 1 26.7181 5.09091 -0.285169 26.7181 5.09091 -0.285169
83 2 28.4944 4.97866 1.33518 28.4944 4.97866 1.33518
84 2 28.7195 5.11094 -1.91844 28.7195 5.11094 -1.91844
85 1 29.4506 3.36017 -0.347834 29.4506 3.36017 -0.347834
86 2 31.3453 3.38136 1.39736 31.3453 3.38136 1.39736
87 2 31.6445 3.32081 -1.89968 31.6445 3.32081 -1.89968
88 1 32.3065 5.06809 -0.201559 32.3065 5.06809 -0.201559
89 2 34.2284 5.01146 1.34515 34.2284 5.01146 1.34515
90 2 34.3969 5.04836 -1.82706 34.3969 5.04836 -1.82706
91 1 35.2228 3.32715 -0.248432 35.2228 3.32715 -0.248432
92 2 37.2289 3.34792 1.32745 37.2289 3.34792 1.32745
93 2 37.0452 3.40326 -1.83884 37.0452 3.40326 -1.83884
94 1 38.184 5.08941 -0.259427 38.184 5.08941 -0.259427
95 2 40.2622 5.26908 1.27752 40.2622 5.26908 1.27752
96 2 40.1066 4.79562 -1.85062 40.1066 4.79562 -1.85062
97 1 40.9665 3.28435 -0.0896206 40.9665 3.28435 -0.0896206
98 2 42.7823 3.1771 1.52462 42.7823 3.1771 1.52462
99 2 42.9373 3.36732 -1.66799 42.9373 3.36732 -1.66799
100 1 43.8891 5.0186 0.0327581 43.8891 5.0186 0.0327581
101 2 45.8233 5.11638 1.61075 45.8233 5.11638 1.61075
102 2 45.7494 5.05403 -1.72585 45.7494 5.05403 -1.72585
103 1 46.7827 3.3524 -0.0707374 46.7827 3.3524 -0.0707374
104 2 48.9596 3.1994 1.40305 48.9596 3.1994 1.40305
105 2 48.4605 3.32007 -1.90978 48.4605 3.32007 -1.90978
106 1 49.6425 4.98048 -0.196565 49.6425 4.98048 -0.196565
107 2 51.4919 5.14455 1.43284 51.4919 5.14455 1.43284
108 2 51.495 5.05866 -1.77173 51.495 5.05866 -1.77173
109 1 1.02681 6.89664 -0.158986 1.02681 6.89664 -0.158986
110 2 3.12114 6.74839 1.33245 3.12114 6.74839 1.33245
111 2 2.87101 7.03748 -1.89582 2.87101 7.03748 -1.89582
112 1 3.84106 8.63142 -0.210209 3.84106 8.63142 -0.210209
113 2 5.92276 8.52674 1.19359 5.92276 8.52674 1.19359
114 2 5.60856 8.55403 -2.00869 5.60856 8.55403 -2.00869
115 1 6.75953 6.91546 -0.517584 6.75953 6.91546 -0.517584
116 2 8.71154 6.76369 1.07586 8.71154 6.76369 1.07586
117 2 8.68954 6.88722 -2.13903 8.68954 6.88722 -2.13903
118 1 9.64335 8.55912 -0.470331 9.64335 8.55912 -0.470331
119 2 11.5941 8.54121 1.23522 11.5941 8.54121 1.23522
120 2 11.4954 8.50569 -2.12396 11.4954 8.50569 -2.12396
121 1 12.5056 6.72973 -0.40599 12.5056 6.72973 -0.40599
122 2 14.4423 6.9756 1.10596 14.4423 6.9756 1.10596
123 2 14.367 6.71658 -2.09191 14.367 6.71658 -2.09191
124 1 15.3154 8.55649 -0.577017 15.3154 8.55649 -0.577017
125 2 17.1871 8.65583 1.11222 17.1871 8.65583 1.11222
126 2 17.2439 8.45038 -2.19236 17.2439 8.45038 -2.19236
127 1 18.2027 6.87373 -0.362392 18.2027 6.87373 -0.362392
128 2 20.2024 6.77675 1.10574 20.2024 6.77675 1.10574
129 2 19.9811 7.01595 -2.1247 19.9811 7.01595 -2.1247
130 1 20.979 8.5792 -0.391275 20.979 8.5792 -0.391275
131 2 23.0704 8.54446 1.03915 23.0704 8.54446 1.03915
132 2 22.8368 8.61989 -2.20908 22.8368 8.61989 -2.20908
133 1 23.9487 6.85522 -0.559923 23.9487 6.85522 -0.559923
134 2 25.8374 6.89464 1.16191 25.8374 6.89464 1.16191
135 2 25.8707 6.52392 -2.1948 25.8707 6.52392 -2.1948
136 1 26.6802 8.46486 -0.658469 26.6802 8.46486 -0.658469
137 2 28.4574 8.4535 1.30254 28.4574 8.4535 1.30254
138 2 28.6738 8.43902 -2.06803 28.6738 8.43902 -2.06803
139 1 29.4799 6.82814 -0.269896 29.4799 6.82814 -0.269896
140 2 31.305 6.73218 1.40442 31.305 6.73218 1.40442
141 2 31.3465 6.66095 -1.92097 31.3465 6.66095 -1.92097
142 1 32.325 8.49991 -0.262264 32.325 8.49991 -0.262264
143 2 34.3428 8.66652 1.32384 34.3428 8.66652 1.32384
144 2 34.2711 8.5161 -1.97638 34.2711 8.5161 -1.97638
145 1 35.3091 6.80681 -0.201141 35.3091 6.80681 -0.201141
146 2 37.3911 6.82535 1.50266 37.3911 6.82535 1.50266
147 2 37.2418 6.73023 -1.80665 37.2418 6.73023 -1.80665
148 1 38.1333 8.52287 -0.264657 38.1333 8.52287 -0.264657
149 2 40.1939 8.43608 1.27351 40.1939 8.43608 1.27351
150 2 39.9784 8.5511 -1.96559 39.9784 8.5511 -1.96559
151 1 41.0644 6.78331 -0.469796 41.0644 6.78331 -0.469796
152 2 42.7697 7.05589 1.36235 42.7697 7.05589 1.36235
153 2 43.0972 6.64374 -1.857 43.0972 6.64374 -1.857
154 1 43.9 8.45752 -0.271521 43.9 8.45752 -0.271521
155 2 45.7059 8.47875 1.40293 45.7059 8.47875 1.40293
156 2 45.865 8.54504 -1.79456 45.865 8.54504 -1.79456
157 1 46.7004 6.81472 -0.107616 46.7004 6.81472 -0.107616
158 2 48.6324 6.66172 1.45138 48.6324 6.66172 1.45138
159 2 48.5314 6.73112 -1.70986 48.5314 6.73112 -1.70986
160 1 49.5636 8.53165 -0.0845203 49.5636 8.53165 -0.0845203
161 2 51.4991 8.46027 1.49046 51.4991 8.46027 1.49046
162 2 51.4666 8.53664 -1.7263 51.4666 8.53664 -1.7263
163 1 0.926342 10.3348 -0.0192102 0.926342 10.3348 -0.0192102
164 2 2.9028 10.3397 1.52276 2.9028 10.3397 1.52276
165 2 2.83059 10.337 -1.76304 2.83059 10.337 -1.76304
166 1 3.81727 11.9799 -0.195203 3.81727 11.9799 -0.195203
167 2 5.97774 11.8824 1.29273 5.97774 11.8824 1.29273
168 2 5.63066 12.0562 -1.93276 5.63066 12.0562 -1.93276
169 1 6.73774 10.2445 -0.486382 6.73774 10.2445 -0.486382
170 2 8.56257 10.1253 1.15631 8.56257 10.1253 1.15631
171 2 8.6835 10.2779 -2.04948 8.6835 10.2779 -2.04948
172 1 9.62444 11.9349 -0.370774 9.62444 11.9349 -0.370774
173 2 11.5503 12.066 1.25909 11.5503 12.066 1.25909
174 2 11.43 11.9634 -2.05902 11.43 11.9634 -2.05902
175 1 12.457 10.2601 -0.482887 12.457 10.2601 -0.482887
176 2 14.3874 10.2922 1.06517 14.3874 10.2922 1.06517
177 2 14.3079 10.2028 -2.2431 14.3079 10.2028 -2.2431
178 1 15.3212 12.0197 -0.662474 15.3212 12.0197 -0.662474
179 2 17.2222 11.9738 0.96959 17.2222 11.9738 0.96959
180 2 17.2085 11.9782 -2.33917 17.2085 11.9782 -2.33917
181 1 18.0929 10.2965 -0.662028 18.0929 10.2965 -0.662028
182 2 19.9413 10.3807 1.04823 19.9413 10.3807 1.04823
183 2 20.2691 10.1302 -2.18614 20.2691 10.1302 -2.18614
184 1 21.0379 12.0241 -0.585584 21.0379 12.0241 -0.585584
185 2 23.0963 11.9752 0.980217 23.0963 11.9752 0.980217
186 2 22.9147 11.9837 -2.30219 22.9147 11.9837 -2.30219
187 1 23.899 10.2872 -0.604152 23.899 10.2872 -0.604152
188 2 25.8315 10.2841 1.00568 25.8315 10.2841 1.00568
189 2 25.7303 10.2808 -2.31268 25.7303 10.2808 -2.31268
190 1 26.7219 12.0433 -0.59154 26.7219 12.0433 -0.59154
191 2 28.485 12.1667 1.15016 28.485 12.1667 1.15016
192 2 28.7353 12.0699 -2.14434 28.7353 12.0699 -2.14434
193 1 29.4466 10.2912 -0.292713 29.4466 10.2912 -0.292713
194 2 31.4728 10.3993 1.1689 31.4728 10.3993 1.1689
195 2 31.2691 10.0785 -1.98689 31.2691 10.0785 -1.98689
196 1 32.3517 11.9352 -0.583748 32.3517 11.9352 -0.583748
197 2 34.2228 12.1532 1.10903 34.2228 12.1532 1.10903
198 2 34.3264 11.9483 -2.16339 34.3264 11.9483 -2.16339
199 1 35.2233 10.317 -0.36081 35.2233 10.317 -0.36081
200 2 37.1353 10.3166 1.32906 37.1353 10.3166 1.32906
201 2 37.1796 10.2605 -2.07955 37.1796 10.2605 -2.07955
202 1 38.1517 11.9405 -0.447534 38.1517 11.9405 -0.447534
203 2 39.9582 12.0596 1.19042 39.9582 12.0596 1.19042
204 2 40.1087 11.8785 -2.049 40.1087 11.8785 -2.049
205 1 40.9716 10.2549 -0.343377 40.9716 10.2549 -0.343377
206 2 42.9177 10.2388 1.38875 42.9177 10.2388 1.38875
207 2 43.0044 10.2183 -1.87244 43.0044 10.2183 -1.87244
208 1 43.7576 11.9479 -0.12055 43.7576 11.9479 -0.12055
209 2 45.7255 11.8907 1.36644 45.7255 11.8907 1.36644
210 2 45.5281 11.8909 -1.8636 45.5281 11.8909 -1.8636
211 1 46.669 10.2167 -0.218302 46.669 10.2167 -0.218302
212 2 48.5142 10.3083 1.44165 48.5142 10.3083 1.44165
213 2 48.6828 10.2487 -1.82442 48.6828 10.2487 -1.82442
214 1 49.5228 11.9949 -0.178084 49.5228 11.9949 -0.178084
215 2 51.3528 11.9711 1.54133 51.3528 11.9711 1.54133
216 2 51.5377 12.1064 -1.6486 51.5377 12.1064 -1.6486
217 1 0.932306 13.7672 0.0347597 0.932306 13.7672 0.0347597
218 2 2.95205 13.6387 1.61547 2.95205 13.6387 1.61547
219 2 2.83763 13.8508 -1.59295 2.83763 13.8508 -1.59295
220 1 3.84364 15.4228 0.0308568 3.84364 15.4228 0.0308568
221 2 5.87227 15.1892 1.61619 5.87227 15.1892 1.61619
222 2 5.68026 15.6371 -1.58062 5.68026 15.6371 -1.58062
223 1 6.65879 13.6901 -0.283582 6.65879 13.6901 -0.283582
224 2 8.47237 13.6321 1.32351 8.47237 13.6321 1.32351
225 2 8.59294 13.7341 -1.89237 8.59294 13.7341 -1.89237
226 1 9.55959 15.4293 -0.201048 9.55959 15.4293 -0.201048
227 2 11.6504 15.3491 1.22202 11.6504 15.3491 1.22202
228 2 11.4145 15.6147 -2.00925 11.4145 15.6147 -2.00925
229 1 12.3838 13.7661 -0.509307 12.3838 13.7661 -0.509307
230 2 14.4341 13.9102 0.955282 14.4341 13.9102 0.955282
231 2 14.2971 13.7642 -2.33882 14.2971 13.7642 -2.33882
232 1 15.2738 15.4612 -0.802333 15.2738 15.4612 -0.802333
233 2 17.2343 15.3106 0.871866 17.2343 15.3106 0.871866
234 2 17.3343 15.3914 -2.33557 17.3343 15.3914 -2.33557
235 1 18.097 13.6756 -0.755848 18.097 13.6756 -0.755848
236 2 20.1195 13.8459 0.883289 20.1195 13.8459 0.883289
237 2 20.0928 13.4911 -2.31014 20.0928 13.4911 -2.31014
238 1 21.1012 15.4102 -0.812769 21.1012 15.4102 -0.812769
239 2 22.8893 15.3126 1.01865 22.8893 15.3126 1.01865
240 2 23.1736 15.6067 -2.24747 23.1736 15.6067 -2.24747
241 1 23.9153 13.7502 -0.736638 23.9153 13.7502 -0.736638
242 2 25.7388 13.7897 0.995172 25.7388 13.7897 0.995172
243 2 25.8469 13.8648 -2.18492 25.8469 13.8648 -2.18492
244 1 26.7305 15.479 -0.61482 26.7305 15.479 -0.61482
245 2 28.5179 15.3673 1.19846 28.5179 15.3673 1.19846
246 2 28.7948 15.5039 -2.10539 28.7948 15.5039 -2.10539
247 1 29.5615 13.7246 -0.472338 29.5615 13.7246 -0.472338
248 2 31.4985 13.5083 1.14944 31.4985 13.5083 1.14944
249 2 31.4186 13.6782 -2.12659 31.4186 13.6782 -2.12659
250 1 32.4103 15.2976 -0.389457 32.4103 15.2976 -0.389457
251 2 34.2856 15.2267 1.26896 34.2856 15.2267 1.26896
252 2 34.1922 15.5134 -2.07437 34.1922 15.5134 -2.07437
253 1 35.2601 13.6601 -0.632265 35.2601 13.6601 -0.632265
254 2 37.1194 13.6817 1.07993 37.1194 13.6817 1.07993
255 2 37.2002 13.556 -2.22454 37.2002 13.556 -2.22454
256 1 38.0249 15.3988 -0.596302 38.0249 15.3988 -0.596302
257 2 39.8823 15.3594 1.15698 39.8823 15.3594 1.15698
258 2 40.0439 15.5239 -2.0439 40.0439 15.5239 -2.0439
259 1 40.954 13.7474 -0.446211 40.954 13.7474 -0.446211
260 2 42.726 13.7129 1.29529 42.726 13.7129 1.29529
261 2 43.0329 13.609 -1.87524 43.0329 13.609 -1.87524
262 1 43.7675 15.4197 -0.261473 43.7675 15.4197 -0.261473
263 2 45.6415 15.3706 1.3397 45.6415 15.3706 1.3397
264 2 45.6681 15.3788 -1.87958 45.6681 15.3788 -1.87958
265 1 46.5975 13.6249 -0.300857 46.5975 13.6249 -0.300857
266 2 48.4035 13.4986 1.41188 48.4035 13.4986 1.41188
267 2 48.6733 13.8642 -1.77949 48.6733 13.8642 -1.77949
268 1 49.4884 15.3151 0.0821917 49.4884 15.3151 0.0821917
269 2 51.4078 15.4027 1.75484 51.4078 15.4027 1.75484
270 2 51.4055 15.3483 -1.56525 51.4055 15.3483 -1.56525
271 1 0.97531 17.1052 0.0980992 0.97531 17.1052 0.0980992
272 2 2.88274 17.0845 1.77018 2.88274 17.0845 1.77018
273 2 2.90185 17.2037 -1.48557 2.90185 17.2037 -1.48557
274 1 3.84522 18.8442 0.283523 3.84522 18.8442 0.283523
275 2 5.78613 18.8407 1.92812 5.78613 18.8407 1.92812
276 2 5.72485 18.7837 -1.38908 5.72485 18.7837 -1.38908
277 1 6.75687 17.1122 0.256079 6.75687 17.1122 0.256079
278 2 8.93134 17.1294 1.65809 8.93134 17.1294 1.65809
279 2 8.36871 17.2007 -1.46841 8.36871 17.2007 -1.46841
280 1 9.61683 18.9078 0.0377762 9.61683 18.9078 0.0377762
281 2 11.6878 18.7626 1.41616 11.6878 18.7626 1.41616
282 2 11.4162 18.9137 -1.87167 11.4162 18.9137 -1.87167
283 1 12.4562 17.1095 -0.373301 12.4562 17.1095 -0.373301
284 2 14.5878 17.1757 0.910982 14.5878 17.1757 0.910982
285 2 14.0841 17.2715 -2.30771 14.0841 17.2715 -2.30771
286 1 15.2862 18.9182 -0.774292 15.2862 18.9182 -0.774292
287 2 17.2 18.7899 0.930914 17.2 18.7899 0.930914
288 2 17.3212 18.9699 -2.23308 17.3212 18.9699 -2.23308
289 1 18.1778 17.1281 -0.733162 18.1778 17.1281 -0.733162
290 2 20.1669 16.9967 0.880381 20.1669 16.9967 0.880381
291 2 20.1558 17.2372 -2.37132 20.1558 17.2372 -2.37132
292 1 21.032 18.81 -0.613371 21.032 18.81 -0.613371
293 2 22.7784 18.937 1.20962 22.7784 18.937 1.20962
294 2 23.061 18.7529 -2.09752 23.061 18.7529 -2.09752
295 1 23.9178 17.1032 -0.358469 23.9178 17.1032 -0.358469
296 2 25.9521 17.0413 1.21696 25.9521 17.0413 1.21696
297 2 25.7996 17.3618 -2.0182 25.7996 17.3618 -2.0182
298 1 26.7782 18.8798 -0.356127 26.7782 18.8798 -0.356127
299 2 28.7254 18.8714 1.40742 28.7254 18.8714 1.40742
300 2 28.8297 18.8321 -1.83964 28.8297 18.8321 -1.83964
301 1 29.5956 17.1046 -0.264927 29.5956 17.1046 -0.264927
302 2 31.5493 17.1108 1.23221 31.5493 17.1108 1.23221
303 2 31.4061 17.053 -2.06462 31.4061 17.053 -2.06462
304 1 32.383 18.7542 -0.454915 32.383 18.7542 -0.454915
305 2 34.2632 18.7391 1.29837 34.2632 18.7391 1.29837
306 2 34.3958 18.8472 -1.96337 34.3958 18.8472 -1.96337
307 1 35.162 17.0725 -0.375734 35.162 17.0725 -0.375734
308 2 37.0691 16.9539 1.15962 37.0691 16.9539 1.15962
309 2 37.1318 17.1952 -2.05391 37.1318 17.1952 -2.05391
310 1 38.0444 18.8472 -0.346808 38.0444 18.8472 -0.346808
311 2 39.9858 18.6602 1.37426 39.9858 18.6602 1.37426
312 2 39.9078 18.7631 -1.95313 39.9078 18.7631 -1.95313
313 1 40.9125 17.1133 -0.316665 40.9125 17.1133 -0.316665
314 2 42.7697 17.0619 1.45971 42.7697 17.0619 1.45971
315 2 42.9474 17.1255 -1.87484 42.9474 17.1255 -1.87484
316 1 43.7849 18.8051 -0.215419 43.7849 18.8051 -0.215419
317 2 45.6849 18.8415 1.52914 45.6849 18.8415 1.52914
318 2 45.6286 18.7314 -1.83152 45.6286 18.7314 -1.83152
319 1 46.5527 17.0268 -0.171427 46.5527 17.0268 -0.171427
320 2 48.4269 17.0615 1.58275 48.4269 17.0615 1.58275
321 2 48.5524 17.0799 -1.65237 48.5524 17.0799 -1.65237
322 1 49.4841 18.8427 0.0221079 49.4841 18.8427 0.0221079
323 2 51.3964 18.945 1.69705 51.3964 18.945 1.69705
324 2 51.4233 18.8682 -1.53732 51.4233 18.8682 -1.53732
325 1 0.993013 20.6086 0.0217594 0.993013 20.6086 0.0217594
326 2 2.8455 20.6961 1.82235 2.8455 20.6961 1.82235
327 2 2.98863 20.4572 -1.56744 2.98863 20.4572 -1.56744
328 1 3.8222 22.3746 0.113296 3.8222 22.3746 0.113296
329 2 5.55396 22.2607 1.79972 5.55396 22.2607 1.79972
330 2 5.89729 22.4177 -1.41079 5.89729 22.4177 -1.41079
331 1 6.68708 20.4997 0.260945 6.68708 20.4997 0.260945
332 2 8.63064 20.6046 1.75979 8.63064 20.6046 1.75979
333 2 8.4994 20.5648 -1.51456 8.4994 20.5648 -1.51456
334 1 9.55634 22.2683 0.111109 9.55634 22.2683 0.111109
335 2 11.6668 22.16 1.52279 11.6668 22.16 1.52279
336 2 11.4509 22.3588 -1.61669 11.4509 22.3588 -1.61669
337 1 12.5603 20.584 -0.245622 12.5603 20.584 -0.245622
338 2 14.6243 20.365 1.12441 14.6243 20.365 1.12441
339 2 14.2737 20.8667 -2.00638 14.2737 20.8667 -2.00638
340 1 15.3905 22.34 -0.203777 15.3905 22.34 -0.203777
341 2 17.309 22.0787 1.35511 17.309 22.0787 1.35511
342 2 17.2268 22.4157 -1.9071 17.2268 22.4157 -1.9071
343 1 18.2226 20.5705 -0.476189 18.2226 20.5705 -0.476189
344 2 20.0781 20.3907 1.16212 20.0781 20.3907 1.16212
345 2 20.1042 20.6318 -2.1212 20.1042 20.6318 -2.1212
346 1 21.0527 22.2579 -0.286472 21.0527 22.2579 -0.286472
347 2 23.0341 22.3091 1.31154 23.0341 22.3091 1.31154
348 2 22.9274 22.2073 -1.91116 22.9274 22.2073 -1.91116
349 1 23.8984 20.5169 -0.333647 23.8984 20.5169 -0.333647
350 2 25.8815 20.3908 1.39758 25.8815 20.3908 1.39758
351 2 25.8206 20.7614 -1.94426 25.8206 20.7614 -1.94426
352 1 26.7255 22.3341 -0.145693 26.7255 22.3341 -0.145693
353 2 28.609 22.4441 1.40069 28.609 22.4441 1.40069
354 2 28.654 22.1414 -1.78412 28.654 22.1414 -1.78412
355 1 29.6395 20.5376 -0.107899 29.6395 20.5376 -0.107899
356 2 31.7658 20.2804 1.36523 31.7658 20.2804 1.36523
357 2 31.3285 20.5866 -1.9901 31.3285 20.5866 -1.9901
358 1 32.4156 22.2436 -0.26842 32.4156 22.2436 -0.26842
359 2 34.4112 22.2464 1.43688 34.4112 22.2464 1.43688
360 2 34.3525 22.1192 -1.8655 34.3525 22.1192 -1.8655
361 1 35.2497 20.5269 -0.247451 35.2497 20.5269 -0.247451
362 2 37.1828 20.5119 1.38783 37.1828 20.5119 1.38783
363 2 37.1672 20.6382 -1.78143 37.1672 20.6382 -1.78143
364 1 38.1349 22.3145 -0.157494 38.1349 22.3145 -0.157494
365 2 40.1464 22.2253 1.41229 40.1464 22.2253 1.41229
366 2 39.9955 22.3761 -1.7488 39.9955 22.3761 -1.7488
367 1 40.9932 20.4956 -0.227829 40.9932 20.4956 -0.227829
368 2 42.9467 20.5818 1.36236 42.9467 20.5818 1.36236
369 2 42.8035 20.4654 -1.84361 42.8035 20.4654 -1.84361
370 1 43.7941 22.2951 -0.412508 43.7941 22.2951 -0.412508
371 2 45.6606 22.248 1.3716 45.6606 22.248 1.3716
372 2 45.8151 22.2434 -1.83867 45.8151 22.2434 -1.83867
373 1 46.5776 20.518 -0.164123 46.5776 20.518 -0.164123
374 2 48.3979 20.5807 1.59231 48.3979 20.5807 1.59231
375 2 48.7138 20.5569 -1.60914 48.7138 20.5569 -1.60914
376 1 49.4767 22.3023 0.05143 49.4767 22.3023 0.05143
377 2 51.5401 22.3138 1.66018 51.5401 22.3138 1.66018
378 2 51.4666 22.3221 -1.67817 51.4666 22.3221 -1.67817
379 1 0.92912 24.0426 0.0593437 0.92912 24.0426 0.0593437
380 2 2.82571 24.1254 1.70369 2.82571 24.1254 1.70369
381 2 2.80661 24.0137 -1.45188 2.80661 24.0137 -1.45188
382 1 3.83406 25.7905 0.210425 3.83406 25.7905 0.210425
383 2 5.69383 25.7483 1.92618 5.69383 25.7483 1.92618
384 2 5.72658 25.6685 -1.33083 5.72658 25.6685 -1.33083
385 1 6.7074 23.9953 0.394104 6.7074 23.9953 0.394104
386 2 8.61808 23.9003 1.98665 8.61808 23.9003 1.98665
387 2 8.66304 24.1516 -1.30656 8.66304 24.1516 -1.30656
388 1 9.57457 25.7528 0.436904 9.57457 25.7528 0.436904
389 2 11.628 25.5881 1.7725 11.628 25.5881 1.7725
390 2 11.4123 25.8442 -1.4184 11.4123 25.8442 -1.4184
391 1 12.4545 23.9943 -0.0157946 12.4545 23.9943 -0.0157946
392 2 14.5182 23.9094 1.47729 14.5182 23.9094 1.47729
393 2 14.2611 24.0179 -1.72172 14.2611 24.0179 -1.72172
394 1 15.3677 25.7032 -0.0630095 15.3677 25.7032 -0.0630095
395 2 17.3517 25.6299 1.58016 17.3517 25.6299 1.58016
396 2 17.2194 25.8021 -1.66199 17.2194 25.8021 -1.66199
397 1 18.1701 24.0066 -0.147633 18.1701 24.0066 -0.147633
398 2 20.3651 24.1629 1.34359 20.3651 24.1629 1.34359
399 2 19.9878 23.9738 -1.94987 19.9878 23.9738 -1.94987
400 1 20.9654 25.7273 -0.572397 20.9654 25.7273 -0.572397
401 2 22.9203 25.7079 1.12324 22.9203 25.7079 1.12324
402 2 23.0789 26.011 -2.08356 23.0789 26.011 -2.08356
403 1 23.786 24.0179 -0.481792 23.786 24.0179 -0.481792
404 2 25.4893 24.0046 1.36053 25.4893 24.0046 1.36053
405 2 25.9487 23.9681 -1.92217 25.9487 23.9681 -1.92217
406 1 26.6906 25.6558 -0.142438 26.6906 25.6558 -0.142438
407 2 28.6458 25.6965 1.44906 28.6458 25.6965 1.44906
408 2 28.5602 25.7662 -1.78148 28.5602 25.7662 -1.78148
409 1 29.561 24.0039 -0.259199 29.561 24.0039 -0.259199
410 2 31.553 23.9458 1.39455 31.553 23.9458 1.39455
411 2 31.4728 24.1575 -1.86954 31.4728 24.1575 -1.86954
412 1 32.5382 25.6874 -0.09242 32.5382 25.6874 -0.09242
413 2 34.4534 25.6493 1.46891 34.4534 25.6493 1.46891
414 2 34.411 25.7964 -1.86203 34.411 25.7964 -1.86203
415 1 35.3112 23.9716 -0.203728 35.3112 23.9716 -0.203728
416 2 37.1318 23.9578 1.46281 37.1318 23.9578 1.46281
417 2 37.3351 24.0073 -1.75952 37.3351 24.0073 -1.75952
418 1 38.0978 25.6583 -0.0372336 38.0978 25.6583 -0.0372336
419 2 39.9896 25.6205 1.614 39.9896 25.6205 1.614
420 2 40.0286 25.9109 -1.6032 40.0286 25.9109 -1.6032
421 1 41.0072 24.0595 -0.118062 41.0072 24.0595 -0.118062
422 2 42.96 24.0365 1.36604 42.96 24.0365 1.36604
423 2 42.9274 24.1365 -1.83002 42.9274 24.1365 -1.83002
424 1 43.7141 25.8125 -0.144312 43.7141 25.8125 -0.144312
425 2 45.5305 25.7213 1.49527 45.5305 25.7213 1.49527
426 2 45.6494 25.9214 -1.71219 45.6494 25.9214 -1.71219
427 1 46.5784 24.0152 -0.124446 46.5784 24.0152 -0.124446
428 2 48.4307 24.0041 1.58816 48.4307 24.0041 1.58816
429 2 48.5095 23.9226 -1.74033 48.5095 23.9226 -1.74033
430 1 49.5089 25.7452 -0.109801 49.5089 25.7452 -0.109801
431 2 51.3741 25.817 1.63841 51.3741 25.817 1.63841
432 2 51.5637 25.7743 -1.57589 51.5637 25.7743 -1.57589
433 1 1.02934 27.5084 0.111375 1.02934 27.5084 0.111375
434 2 2.79431 27.5667 1.86304 2.79431 27.5667 1.86304
435 2 3.00175 27.4703 -1.45447 3.00175 27.4703 -1.45447
436 1 3.77225 29.2264 0.283049 3.77225 29.2264 0.283049
437 2 5.73415 29.146 1.94213 5.73415 29.146 1.94213
438 2 5.79134 29.1006 -1.27571 5.79134 29.1006 -1.27571
439 1 6.6615 27.4598 0.379141 6.6615 27.4598 0.379141
440 2 8.66078 27.6401 1.92898 8.66078 27.6401 1.92898
441 2 8.56478 27.368 -1.19191 8.56478 27.368 -1.19191
442 1 9.60565 29.1933 0.188231 9.60565 29.1933 0.188231
443 2 11.5093 29.2196 1.75249 11.5093 29.2196 1.75249
444 2 11.564 29.162 -1.43659 11.564 29.162 -1.43659
445 1 12.3937 27.4743 0.229568 12.3937 27.4743 0.229568
446 2 14.3869 27.3277 1.75005 14.3869 27.3277 1.75005
447 2 14.4269 27.5814 -1.49158 14.4269 27.5814 -1.49158
448 1 15.36 29.146 0.220248 15.36 29.146 0.220248
449 2 17.5089 29.1362 1.63541 17.5089 29.1362 1.63541
450 2 17.0578 29.2151 -1.63813 17.0578 29.2151 -1.63813
451 1 18.2138 27.5144 0.0690706 18.2138 27.5144 0.0690706
452 2 20.3527 27.4389 1.23898 20.3527 27.4389 1.23898
453 2 19.7647 27.56 -1.91276 19.7647 27.56 -1.91276
454 1 20.9838 29.2186 -0.472356 20.9838 29.2186 -0.472356
455 2 22.8362 29.3028 1.31119 22.8362 29.3028 1.31119
456 2 23.0622 29.2179 -1.93188 23.0622 29.2179 -1.93188
457 1 23.9189 27.5164 -0.342578 23.9189 27.5164 -0.342578
458 2 25.748 27.3758 1.44168 25.748 27.3758 1.44168
459 2 25.9638 27.5848 -1.81242 25.9638 27.5848 -1.81242
460 1 26.7283 29.1009 -0.0341124 26.7283 29.1009 -0.0341124
461 2 28.7455 29.2152 1.47374 28.7455 29.2152 1.47374
462 2 28.6793 29.1747 -1.74837 28.6793 29.1747 -1.74837
463 1 29.6561 27.3971 -0.26826 29.6561 27.3971 -0.26826
464 2 31.5194 27.5713 1.34226 31.5194 27.5713 1.34226
465 2 31.5855 27.3654 -1.87943 31.5855 27.3654 -1.87943
466 1 32.3779 29.1443 -0.380668 32.3779 29.1443 -0.380668
467 2 34.1704 29.1078 1.33839 34.1704 29.1078 1.33839
468 2 34.3916 29.1767 -1.85318 34.3916 29.1767 -1.85318
469 1 35.3112 27.4515 -0.158122 35.3112 27.4515 -0.158122
470 2 37.2699 27.3995 1.54555 37.2699 27.3995 1.54555
471 2 37.1321 27.4902 -1.73143 37.1321 27.4902 -1.73143
472 1 38.0267 29.2048 -0.00425189 38.0267 29.2048 -0.00425189
473 2 40.028 29.2512 1.65233 40.028 29.2512 1.65233
474 2 40.0761 29.0176 -1.53362 40.0761 29.0176 -1.53362
475 1 40.9527 27.4779 0.155994 40.9527 27.4779 0.155994
476 2 42.9565 27.3431 1.67094 42.9565 27.3431 1.67094
477 2 42.7384 27.7004 -1.53736 42.7384 27.7004 -1.53736
478 1 43.8949 29.1941 0.0717328 43.8949 29.1941 0.0717328
479 2 45.7958 29.2358 1.63271 45.7958 29.2358 1.63271
480 2 45.7887 29.1211 -1.59929 45.7887 29.1211 -1.59929
481 1 46.6598 27.3931 -0.0058156 46.6598 27.3931 -0.0058156
482 2 48.6613 27.3964 1.61395 48.6613 27.3964 1.61395
483 2 48.6438 27.6015 -1.64295 48.6438 27.6015 -1.64295
484 1 49.5578 29.2491 0.0652135 49.5578 29.2491 0.0652135
485 2 51.4802 29.2011 1.75993 51.4802 29.2011 1.75993
486 2 51.5337 29.2392 -1.56287 51.5337 29.2392 -1.56287
487 1 0.933133 30.9197 0.122925 0.933133 30.9197 0.122925
488 2 2.6851 30.981 1.85036 2.6851 30.981 1.85036
489 2 3.05056 31.0513 -1.33218 3.05056 31.0513 -1.33218
490 1 3.83336 32.5982 0.385079 3.83336 32.5982 0.385079
491 2 5.84171 32.5686 2.01146 5.84171 32.5686 2.01146
492 2 5.75004 32.5134 -1.24185 5.75004 32.5134 -1.24185
493 1 6.7499 30.7901 0.297684 6.7499 30.7901 0.297684
494 2 8.73936 30.8635 1.84122 8.73936 30.8635 1.84122
495 2 8.57219 30.9405 -1.43287 8.57219 30.9405 -1.43287
496 1 9.51994 32.6855 0.223704 9.51994 32.6855 0.223704
497 2 11.6406 32.77 1.77067 11.6406 32.77 1.77067
498 2 11.3979 32.4797 -1.46872 11.3979 32.4797 -1.46872
499 1 12.4398 30.8962 0.20979 12.4398 30.8962 0.20979
500 2 14.383 30.8328 1.7401 14.383 30.8328 1.7401
501 2 14.4082 30.892 -1.41362 14.4082 30.892 -1.41362
502 1 15.2944 32.654 0.0807922 15.2944 32.654 0.0807922
503 2 17.3552 32.6376 1.60732 17.3552 32.6376 1.60732
504 2 17.1258 32.6105 -1.68163 17.1258 32.6105 -1.68163
505 1 18.2003 30.8419 -0.125369 18.2003 30.8419 -0.125369
506 2 20.2076 30.8077 1.40654 20.2076 30.8077 1.40654
507 2 19.8802 31.0154 -1.86023 19.8802 31.0154 -1.86023
508 1 20.916 32.6169 -0.151018 20.916 32.6169 -0.151018
509 2 22.9463 32.598 1.46252 22.9463 32.598 1.46252
510 2 22.8279 32.7099 -1.76848 22.8279 32.7099 -1.76848
511 1 23.8843 30.9003 -0.244961 23.8843 30.9003 -0.244961
512 2 25.7977 30.8921 1.48735 25.7977 30.8921 1.48735
513 2 25.867 30.7957 -1.74948 25.867 30.7957 -1.74948
514 1 26.6745 32.6012 -0.0723512 26.6745 32.6012 -0.0723512
515 2 28.6001 32.6639 1.44914 28.6001 32.6639 1.44914
516 2 28.5524 32.3776 -1.88354 28.5524 32.3776 -1.88354
517 1 29.5081 30.913 -0.194644 29.5081 30.913 -0.194644
518 2 31.4445 30.8198 1.33542 31.4445 30.8198 1.33542
519 2 31.3049 30.987 -1.87769 31.3049 30.987 -1.87769
520 1 32.4052 32.5921 -0.159129 32.4052 32.5921 -0.159129
521 2 34.2013 32.5744 1.60963 34.2013 32.5744 1.60963
522 2 34.3706 32.5653 -1.72084 34.3706 32.5653 -1.72084
523 1 35.2463 30.849 0.00367096 35.2463 30.849 0.00367096
524 2 37.1495 30.7827 1.72369 37.1495 30.7827 1.72369
525 2 37.1598 31.0165 -1.55313 37.1598 31.0165 -1.55313
526 1 38.0686 32.646 0.152855 38.0686 32.646 0.152855
527 2 39.9265 32.3929 1.78778 39.9265 32.3929 1.78778
528 2 40.0819 32.862 -1.50467 40.0819 32.862 -1.50467
529 1 40.9041 30.9356 -0.0137618 40.9041 30.9356 -0.0137618
530 2 42.8598 30.8384 1.69428 42.8598 30.8384 1.69428
531 2 43.0044 31.0195 -1.54878 43.0044 31.0195 -1.54878
532 1 43.8628 32.7618 0.193336 43.8628 32.7618 0.193336
533 2 45.6728 32.5813 1.7743 45.6728 32.5813 1.7743
534 2 45.7137 32.7451 -1.51528 45.7137 32.7451 -1.51528
535 1 46.6947 30.9664 0.0164175 46.6947 30.9664 0.0164175
536 2 48.5832 30.6563 1.86743 48.5832 30.6563 1.86743