ITEM: TIMESTEP
1606000
ITEM: NUMBER OF ATOMS
810
ITEM: BOX BOUNDS pp pp pp
8.0341777045796159e-01 5.2214187229542503e+01
-3.1613673648351295e+00 5.4177582364833995e+01
-1.0000000000000000e+01 1.0000000000000000e+01
ITEM: ATOMS id type x y z xu yu zu
1 1 0.972711 -2.89711 -0.365708 0.972711 -2.89711 -0.365708
2 2 2.89589 -2.87337 1.12993 2.89589 -2.87337 1.12993
3 2 2.77019 -2.96225 -2.03769 2.77019 -2.96225 -2.03769
4 1 3.76377 -1.00347 -0.493949 3.76377 -1.00347 -0.493949
5 2 5.4235 -1.01724 1.27874 5.4235 -1.01724 1.27874
6 2 5.81196 -1.10545 -1.95219 5.81196 -1.10545 -1.95219
7 1 6.62451 -2.89199 -0.306833 6.62451 -2.89199 -0.306833
8 2 8.62832 -2.90495 1.35576 8.62832 -2.90495 1.35576
9 2 8.69009 -2.8886 -1.85863 8.69009 -2.8886 -1.85863
10 1 9.63617 -0.994997 -0.28965 9.63617 -0.994997 -0.28965
11 2 11.4503 -0.998348 1.38567 11.4503 -0.998348 1.38567
12 2 11.7325 -0.854598 -1.79654 11.7325 -0.854598 -1.79654
13 1 12.4947 -2.85525 -0.199522 12.4947 -2.85525 -0.199522
14 2 14.3467 -2.84056 1.45096 14.3467 -2.84056 1.45096
15 2 14.432 -2.8857 -1.81521 14.432 -2.8857 -1.81521
16 1 15.2222 -1.02163 -0.21523 15.2222 -1.02163 -0.21523
17 2 17.3513 -0.936338 1.31634 17.3513 -0.936338 1.31634
18 2 17.1784 -0.870577 -1.81512 17.1784 -0.870577 -1.81512
19 1 18.2414 -2.83369 -0.266998 18.2414 -2.83369 -0.266998
20 2 20.2926 -2.9238 1.19619 20.2926 -2.9238 1.19619
21 2 20.1755 -2.93775 -1.9753 20.1755 -2.93775 -1.9753
22 1 21.0655 -0.927964 -0.476849 21.0655 -0.927964 -0.476849
23 2 23.0979 -0.913841 1.09594 23.0979 -0.913841 1.09594
24 2 22.9537 -0.980955 -2.14266 22.9537 -0.980955 -2.14266
25 1 23.819 -2.91037 -0.483154 23.819 -2.91037 -0.483154
26 2 25.8794 -2.82233 1.11846 25.8794 -2.82233 1.11846
27 2 25.8438 -3.02197 -2.08108 25.8438 -3.02197 -2.08108
28 1 26.6953 -1.01355 -0.618912 26.6953 -1.01355 -0.618912
29 2 28.4692 -0.789813 1.13712 28.4692 -0.789813 1.13712
30 2 28.8241 -1.05803 -2.02467 28.8241 -1.05803 -2.02467
31 1 29.5939 -2.8584 -0.133712 29.5939 -2.8584 -0.133712
32 2 31.347 -2.93746 1.61343 31.347 -2.93746 1.61343
33 2 31.6041 -2.87096 -1.64787 31.6041 -2.87096 -1.64787
34 1 32.4691 -1.00708 -0.0529746 32.4691 -1.00708 -0.0529746
35 2 34.4333 -0.988933 1.43784 34.4333 -0.988933 1.43784
36 2 34.3398 -1.03027 -1.73776 34.3398 -1.03027 -1.73776
37 1 35.3007 -2.96372 -0.180341 35.3007 -2.96372 -0.180341
38 2 37.3512 -2.88138 1.45192 37.3512 -2.88138 1.45192
39 2 37.1933 -2.89706 -1.85535 37.1933 -2.89706 -1.85535
40 1 38.1893 -0.966465 -0.0666669 38.1893 -0.966465 -0.0666669
41 2 40.1887 -0.888173 1.4475 40.1887 -0.888173 1.4475
42 2 40.0423 -0.849593 -1.79111 40.0423 -0.849593 -1.79111
43 1 40.9854 -2.81534 -0.227758 40.9854 -2.81534 -0.227758
44 2 43.1537 -2.87087 1.02102 43.1537 -2.87087 1.02102
45 2 42.7595 -2.91161 -2.11486 42.7595 -2.91161 -2.11486
46 1 43.8176 -0.924391 -0.724542 43.8176 -0.924391 -0.724542
47 2 45.7402 -0.901389 1.00623 45.7402 -0.901389 1.00623
48 2 45.9329 -0.933489 -2.18969 45.9329 -0.933489 -2.18969
49 1 46.6634 -2.85701 -0.552541 46.6634 -2.85701 -0.552541
50 2 48.6155 -2.93573 1.01853 48.6155 -2.93573 1.01853
51 2 48.6272 -2.84101 -2.13723 48.6272 -2.84101 -2.13723
52 1 49.5626 -0.955872 -0.423412 49.5626 -0.955872 -0.423412
53 2 51.6357 -1.00945 1.09694 51.6357 -1.00945 1.09694
54 2 51.5038 -0.986921 -1.99182 51.5038 -0.986921 -1.99182
55 1 1.00224 1.00237 -0.535293 1.00224 1.00237 -0.535293
56 2 2.92062 0.980597 1.14697 2.92062 0.980597 1.14697
57 2 2.96958 0.958638 -2.08293 2.96958 0.958638 -2.08293
58 1 3.83332 2.76209 -0.406699 3.83332 2.76209 -0.406699
59 2 5.74947 2.66083 1.22864 5.74947 2.66083 1.22864
60 2 5.88359 2.88318 -1.84056 5.88359 2.88318 -1.84056
61 1 6.71809 0.782416 -0.271116 6.71809 0.782416 -0.271116
62 2 8.50354 0.788066 1.49217 8.50354 0.788066 1.49217
63 2 8.71124 1.08154 -1.85435 8.71124 1.08154 -1.85435
64 1 9.54061 2.82921 0.0314123 9.54061 2.82921 0.0314123
65 2 11.4592 2.80062 1.49592 11.4592 2.80062 1.49592
66 2 11.3158 3.07198 -1.68885 11.3158 3.07198 -1.68885
67 1 12.4528 0.974105 -0.191738 12.4528 0.974105 -0.191738
68 2 14.2763 0.841349 1.3729 14.2763 0.841349 1.3729
69 2 14.5479 1.11592 -1.7727 14.5479 1.11592 -1.7727
70 1 15.3794 2.87929 -0.103124 15.3794 2.87929 -0.103124
71 2 17.4611 2.8475 1.36187 17.4611 2.8475 1.36187
72 2 17.2386 2.73071 -1.81543 17.2386 2.73071 -1.81543
73 1 18.1936 0.958373 -0.29804 18.1936 0.958373 -0.29804
74 2 20.225 0.856504 1.19033 20.225 0.856504 1.19033
75 2 20.0066 1.00134 -1.96669 20.0066 1.00134 -1.96669
76 1 21.012 2.87564 -0.407227 21.012 2.87564 -0.407227
77 2 23.0319 2.72382 1.05256 23.0319 2.72382 1.05256
78 2 22.7996 2.86698 -2.18468 22.7996 2.86698 -2.18468
79 1 23.7942 0.939744 -0.659877 23.7942 0.939744 -0.659877
80 2 25.6983 0.930066 0.965976 25.6983 0.930066 0.965976
81 2 25.7917 1.00216 -2.2506 25.7917 1.00216 -2.2506
82 1 26.6029 2.90199 -0.511643 26.6029 2.90199 -0.511643
83 2 28.5408 2.7214 1.27495 28.5408 2.7214 1.27495
84 2 28.7127 3.05403 -1.99601 28.7127 3.05403 -1.99601
85 1 29.5135 0.977325 -0.526501 29.5135 0.977325 -0.526501
86 2 31.1608 0.860258 1.42614 31.1608 0.860258 1.42614
87 2 31.7116 0.844566 -1.91924 31.7116 0.844566 -1.91924
88 1 32.4156 2.75259 -0.0712142 32.4156 2.75259 -0.0712142
89 2 34.2917 2.70895 1.69012 34.2917 2.70895 1.69012
90 2 34.3796 2.77976 -1.63149 34.3796 2.77976 -1.63149
91 1 35.3039 0.955353 -0.092852 35.3039 0.955353 -0.092852
92 2 37.2735 1.07622 1.56486 37.2735 1.07622 1.56486
93 2 37.2016 1.0293 -1.72389 37.2016 1.0293 -1.72389
94 1 38.1245 2.94936 -0.234067 38.1245 2.94936 -0.234067
95 2 40.0792 2.88957 1.3842 40.0792 2.88957 1.3842
96 2 40.0676 3.02252 -1.86779 40.0676 3.02252 -1.86779
97 1 40.9872 1.10659 -0.204101 40.9872 1.10659 -0.204101
98 2 43.2476 0.953644 1.00022 43.2476 0.953644 1.00022
99 2 42.607 1.01807 -2.07081 42.607 1.01807 -2.07081
100 1 43.8195 2.97787 -0.726313 43.8195 2.97787 -0.726313
101 2 45.557 2.95494 1.06141 45.557 2.95494 1.06141
102 2 45.9618 2.98498 -2.12505 45.9618 2.98498 -2.12505
103 1 46.6591 1.01501 -0.522792 46.6591 1.01501 -0.522792
104 2 48.569 0.986398 1.18626 48.569 0.986398 1.18626
105 2 48.5521 1.01501 -2.05002 48.5521 1.01501 -2.05002
106 1 49.4979 2.8968 -0.431325 49.4979 2.8968 -0.431325
107 2 51.515 2.80801 1.06407 51.515 2.80801 1.06407
108 2 51.3612 3.0357 -2.04906 51.3612 3.0357 -2.04906
109 1 0.961934 4.85288 -0.446837 0.961934 4.85288 -0.446837
110 2 2.81082 4.66849 1.25281 2.81082 4.66849 1.25281
111 2 3.03704 4.70678 -2.02632 3.03704 4.70678 -2.02632
112 1 3.80801 6.57341 -0.316461 3.80801 6.57341 -0.316461
113 2 5.82102 6.53214 1.34594 5.82102 6.53214 1.34594
114 2 5.93621 6.59166 -1.94519 5.93621 6.59166 -1.94519
115 1 6.73689 4.65735 -0.306873 6.73689 4.65735 -0.306873
116 2 8.58934 4.74064 1.53623 8.58934 4.74064 1.53623
117 2 8.84456 4.78529 -1.63532 8.84456 4.78529 -1.63532
118 1 9.58163 6.60567 -0.0808187 9.58163 6.60567 -0.0808187
119 2 11.4397 6.5728 1.6793 11.4397 6.5728 1.6793
120 2 11.4973 6.62646 -1.64011 11.4973 6.62646 -1.64011
121 1 12.3985 4.702 0.00234659 12.3985 4.702 0.00234659
122 2 14.476 4.80074 1.5098 14.476 4.80074 1.5098
123 2 14.378 4.68354 -1.61092 14.378 4.68354 -1.61092
124 1 15.406 6.61976 -0.0287011 15.406 6.61976 -0.0287011
125 2 17.4636 6.56209 1.34527 17.4636 6.56209 1.34527
126 2 17.0984 6.63248 -1.78978 17.0984 6.63248 -1.78978
127 1 18.1421 4.69398 -0.324165 18.1421 4.69398 -0.324165
128 2 20.1116 4.86409 1.28115 20.1116 4.86409 1.28115
129 2 19.9007 4.69677 -2.09982 19.9007 4.69677 -2.09982
130 1 20.9446 6.71693 -0.50855 20.9446 6.71693 -0.50855
131 2 22.9691 6.6259 1.12033 22.9691 6.6259 1.12033
132 2 22.8526 6.68069 -2.08132 22.8526 6.68069 -2.08132
133 1 23.6885 4.69372 -0.474006 23.6885 4.69372 -0.474006
134 2 25.7752 4.75289 1.11262 25.7752 4.75289 1.11262
135 2 25.6458 4.77818 -2.08507 25.6458 4.77818 -2.08507
136 1 26.7117 6.66163 -0.468724 26.7117 6.66163 -0.468724
137 2 28.5612 6.82528 1.29359 28.5612 6.82528 1.29359
138 2 28.9143 6.58295 -1.9618 28.9143 6.58295 -1.9618
139 1 29.597 4.65444 -0.093466 29.597 4.65444 -0.093466
140 2 31.5077 4.63837 1.45672 31.5077 4.63837 1.45672
141 2 31.5252 4.78387 -1.75353 31.5252 4.78387 -1.75353
142 1 32.335 6.68925 -0.104998 32.335 6.68925 -0.104998
143 2 34.2042 6.77481 1.52847 34.2042 6.77481 1.52847
144 2 34.3572 6.62011 -1.69176 34.3572 6.62011 -1.69176
145 1 35.2264 4.75072 -0.0013285 35.2264 4.75072 -0.0013285
146 2 37.3043 4.82588 1.47245 37.3043 4.82588 1.47245
147 2 37.2392 4.75869 -1.77986 37.2392 4.75869 -1.77986
148 1 38.1174 6.68373 -0.0990667 38.1174 6.68373 -0.0990667
149 2 39.9191 6.68755 1.58757 39.9191 6.68755 1.58757
150 2 40.1676 6.81972 -1.61922 40.1676 6.81972 -1.61922
151 1 41.0421 4.85304 -0.149088 41.0421 4.85304 -0.149088
152 2 43.1017 4.74871 1.15052 43.1017 4.74871 1.15052
153 2 42.8067 5.06336 -2.04895 42.8067 5.06336 -2.04895
154 1 43.7927 6.76873 -0.344435 43.7927 6.76873 -0.344435
155 2 45.8581 6.78222 1.24538 45.8581 6.78222 1.24538
156 2 45.7646 6.86071 -1.93411 45.7646 6.86071 -1.93411
157 1 46.6517 4.84904 -0.344414 46.6517 4.84904 -0.344414
158 2 48.6345 4.86371 1.30074 48.6345 4.86371 1.30074
159 2 48.5555 4.77563 -1.97045 48.5555 4.77563 -1.97045
160 1 49.4841 6.67584 -0.388561 49.4841 6.67584 -0.388561
161 2 51.3756 6.57364 1.20685 51.3756 6.57364 1.20685
162 2 51.4254 6.90163 -2.00905 51.4254 6.90163 -2.00905
163 1 0.953318 8.63662 -0.31638 0.953318 8.63662 -0.31638
164 2 2.90054 8.65371 1.26595 2.90054 8.65371 1.26595
165 2 2.85956 8.68208 -1.85693 2.85956 8.68208 -1.85693
166 1 3.89153 10.5413 -0.284007 3.89153 10.5413 -0.284007
167 2 5.89222 10.4265 1.35207 5.89222 10.4265 1.35207
168 2 5.83469 10.4448 -1.96297 5.83469 10.4448 -1.96297
169 1 6.68975 8.39871 -0.216001 6.68975 8.39871 -0.216001
170 2 8.49077 8.5502 1.47557 8.49077 8.5502 1.47557
171 2 8.83387 8.47444 -1.58927 8.83387 8.47444 -1.58927
172 1 9.48406 10.4931 0.0491678 9.48406 10.4931 0.0491678
173 2 11.5763 10.5699 1.54645 11.5763 10.5699 1.54645
174 2 11.3539 10.3888 -1.62215 11.3539 10.3888 -1.62215
175 1 12.4483 8.5044 0.0648102 12.4483 8.5044 0.0648102
176 2 14.5182 8.65573 1.563 14.5182 8.65573 1.563
177 2 14.3629 8.40386 -1.58731 14.3629 8.40386 -1.58731
178 1 15.2892 10.4223 -0.19982 15.2892 10.4223 -0.19982
179 2 17.1905 10.338 1.38278 17.1905 10.338 1.38278
180 2 17.246 10.6062 -1.70366 17.246 10.6062 -1.70366
181 1 18.1514 8.56813 -0.282053 18.1514 8.56813 -0.282053
182 2 20.1351 8.47774 1.20256 20.1351 8.47774 1.20256
183 2 19.9774 8.68988 -2.04918 19.9774 8.68988 -2.04918
184 1 20.9324 10.4864 -0.269685 20.9324 10.4864 -0.269685
185 2 22.9998 10.3041 1.29487 22.9998 10.3041 1.29487
186 2 22.9099 10.6588 -1.91346 22.9099 10.6588 -1.91346
187 1 23.9205 8.66054 -0.400654 23.9205 8.66054 -0.400654
188 2 25.7928 8.48334 1.25458 25.7928 8.48334 1.25458
189 2 25.858 8.63013 -1.91098 25.858 8.63013 -1.91098
190 1 26.7812 10.4517 -0.315074 26.7812 10.4517 -0.315074
191 2 28.5984 10.4653 1.36132 28.5984 10.4653 1.36132
192 2 28.7084 10.56 -1.83289 28.7084 10.56 -1.83289
193 1 29.5819 8.55193 -0.281572 29.5819 8.55193 -0.281572
194 2 31.2858 8.62187 1.51587 31.2858 8.62187 1.51587
195 2 31.7015 8.72178 -1.69694 31.7015 8.72178 -1.69694
196 1 32.429 10.4729 0.00762238 32.429 10.4729 0.00762238
197 2 34.4626 10.332 1.57406 34.4626 10.332 1.57406
198 2 34.4226 10.4696 -1.55302 34.4226 10.4696 -1.55302
199 1 35.2354 8.54043 -0.09873 35.2354 8.54043 -0.09873
200 2 37.0654 8.30469 1.56242 37.0654 8.30469 1.56242
201 2 37.3875 8.73693 -1.58958 37.3875 8.73693 -1.58958
202 1 38.0741 10.6115 0.288137 38.0741 10.6115 0.288137
203 2 40.1074 10.5609 1.68918 40.1074 10.5609 1.68918
204 2 39.8313 10.5911 -1.47307 39.8313 10.5911 -1.47307
205 1 40.911 8.7171 0.100631 40.911 8.7171 0.100631
206 2 43.1234 8.59729 1.38437 43.1234 8.59729 1.38437
207 2 42.6147 8.63377 -1.80688 42.6147 8.63377 -1.80688
208 1 43.788 10.5556 -0.322045 43.788 10.5556 -0.322045
209 2 45.7575 10.4024 1.18562 45.7575 10.4024 1.18562
210 2 45.5948 10.7636 -1.95092 45.5948 10.7636 -1.95092
211 1 46.6723 8.78953 -0.542446 46.6723 8.78953 -0.542446
212 2 48.4415 8.57244 1.21862 48.4415 8.57244 1.21862
213 2 48.6113 8.77535 -2.05344 48.6113 8.77535 -2.05344
214 1 49.5132 10.5776 -0.36962 49.5132 10.5776 -0.36962
215 2 51.3481 10.4682 1.2925 51.3481 10.4682 1.2925
216 2 51.5629 10.4184 -1.89273 51.5629 10.4184 -1.89273
217 1 0.952495 12.408 -0.192659 0.952495 12.408 -0.192659
218 2 2.99659 12.333 1.35697 2.99659 12.333 1.35697
219 2 2.86207 12.3246 -1.89329 2.86207 12.3246 -1.89329
220 1 3.88063 14.212 -0.284601 3.88063 14.212 -0.284601
221 2 5.70787 14.2035 1.33734 5.70787 14.2035 1.33734
222 2 5.84745 14.2699 -1.86626 5.84745 14.2699 -1.86626
223 1 6.82437 12.4455 -0.244827 6.82437 12.4455 -0.244827
224 2 8.55163 12.4478 1.49453 8.55163 12.4478 1.49453
225 2 8.83392 12.2771 -1.74688 8.83392 12.2771 -1.74688
226 1 9.6492 14.279 -0.261109 9.6492 14.279 -0.261109
227 2 11.5462 14.1557 1.39881 11.5462 14.1557 1.39881
228 2 11.6511 14.403 -1.74149 11.6511 14.403 -1.74149
229 1 12.3287 12.3965 -0.239109 12.3287 12.3965 -0.239109
230 2 14.3502 12.4433 1.36458 14.3502 12.4433 1.36458
231 2 14.3196 12.345 -1.86775 14.3196 12.345 -1.86775
232 1 15.3627 14.4047 -0.455679 15.3627 14.4047 -0.455679
233 2 17.1537 14.6677 1.28831 17.1537 14.6677 1.28831
234 2 17.3534 14.2752 -1.9684 17.3534 14.2752 -1.9684
235 1 18.0874 12.5699 -0.133926 18.0874 12.5699 -0.133926
236 2 20.1677 12.6011 1.36362 20.1677 12.6011 1.36362
237 2 19.8695 12.431 -1.89342 19.8695 12.431 -1.89342
238 1 21.0321 14.3312 -0.445892 21.0321 14.3312 -0.445892
239 2 22.8522 14.3248 1.25051 22.8522 14.3248 1.25051
240 2 23.0561 14.3032 -1.94595 23.0561 14.3032 -1.94595
241 1 23.8001 12.3605 -0.212935 23.8001 12.3605 -0.212935
242 2 25.7039 12.1209 1.43082 25.7039 12.1209 1.43082
243 2 25.8508 12.5879 -1.76135 25.8508 12.5879 -1.76135
244 1 26.5895 14.2006 -0.0636412 26.5895 14.2006 -0.0636412
245 2 28.6978 14.2178 1.50386 28.6978 14.2178 1.50386
246 2 28.4921 14.3462 -1.69862 28.4921 14.3462 -1.69862
247 1 29.6394 12.3551 -0.143401 29.6394 12.3551 -0.143401
248 2 31.423 12.3282 1.63714 31.423 12.3282 1.63714
249 2 31.5361 12.4595 -1.6499 31.5361 12.4595 -1.6499
250 1 32.4242 14.2866 0.0556774 32.4242 14.2866 0.0556774
251 2 34.3028 14.2844 1.76549 34.3028 14.2844 1.76549
252 2 34.3871 14.3565 -1.6115 34.3871 14.3565 -1.6115
253 1 35.2473 12.4058 0.157018 35.2473 12.4058 0.157018
254 2 37.2016 12.3836 1.79543 37.2016 12.3836 1.79543
255 2 37.3206 12.4179 -1.4183 37.3206 12.4179 -1.4183
256 1 38.022 14.3634 0.216025 38.022 14.3634 0.216025
257 2 39.996 14.3559 1.62699 39.996 14.3559 1.62699
258 2 39.9129 14.3966 -1.42746 39.9129 14.3966 -1.42746
259 1 40.9092 12.4258 0.1307 40.9092 12.4258 0.1307
260 2 42.9863 12.343 1.56559 42.9863 12.343 1.56559
261 2 42.5912 12.5107 -1.75805 42.5912 12.5107 -1.75805
262 1 43.7884 14.3617 -0.149661 43.7884 14.3617 -0.149661
263 2 45.7025 14.3376 1.43384 45.7025 14.3376 1.43384
264 2 45.6593 14.4044 -1.82298 45.6593 14.4044 -1.82298
265 1 46.6295 12.471 -0.234749 46.6295 12.471 -0.234749
266 2 48.5823 12.4581 1.29022 48.5823 12.4581 1.29022
267 2 48.5011 12.3968 -1.93737 48.5011 12.3968 -1.93737
268 1 49.4369 14.2863 -0.492145 49.4369 14.2863 -0.492145
269 2 51.4211 14.3967 1.16092 51.4211 14.3967 1.16092
270 2 51.4396 14.2121 -1.93414 51.4396 14.2121 -1.93414
271 1 52.3665 16.1735 -0.433189 0.955729 16.1735 -0.433189
272 2 2.87142 16.3501 1.26372 2.87142 16.3501 1.26372
273 2 3.12646 16.2099 -1.99151 3.12646 16.2099 -1.99151
274 1 3.7807 18.2057 -0.443786 3.7807 18.2057 -0.443786
275 2 5.70457 18.2314 1.31282 5.70457 18.2314 1.31282
276 2 5.79555 18.2193 -1.94853 5.79555 18.2193 -1.94853
277 1 6.67071 16.1861 -0.293748 6.67071 16.1861 -0.293748
278 2 8.51434 16.1291 1.34105 8.51434 16.1291 1.34105
279 2 8.62774 16.1722 -1.93806 8.62774 16.1722 -1.93806
280 1 9.55645 17.9707 -0.205582 9.55645 17.9707 -0.205582
281 2 11.5527 18.1078 1.34757 11.5527 18.1078 1.34757
282 2 11.4272 17.9734 -1.79183 11.4272 17.9734 -1.79183
283 1 12.4828 16.1815 -0.0235594 12.4828 16.1815 -0.0235594
284 2 14.5231 16.2284 1.38419 14.5231 16.2284 1.38419
285 2 14.2158 16.5064 -1.7469 14.2158 16.5064 -1.7469
286 1 15.1966 18.2508 -0.114054 15.1966 18.2508 -0.114054
287 2 17.3276 18.0575 1.33685 17.3276 18.0575 1.33685
288 2 17.0497 18.2878 -1.81619 17.0497 18.2878 -1.81619
289 1 18.1524 16.3577 -0.504023 18.1524 16.3577 -0.504023
290 2 19.9902 16.413 1.13209 19.9902 16.413 1.13209
291 2 20.1779 16.2763 -2.18544 20.1779 16.2763 -2.18544
292 1 20.8418 18.1812 -0.486735 20.8418 18.1812 -0.486735
293 2 22.7456 18.13 1.20753 22.7456 18.13 1.20753
294 2 22.8706 18.2196 -1.94983 22.8706 18.2196 -1.94983
295 1 23.6972 16.2946 -0.355732 23.6972 16.2946 -0.355732
296 2 25.4358 16.2306 1.38016 25.4358 16.2306 1.38016
297 2 25.8727 16.1265 -1.85487 25.8727 16.1265 -1.85487
298 1 26.6283 18.1008 -0.158505 26.6283 18.1008 -0.158505
299 2 28.5597 17.9406 1.54322 28.5597 17.9406 1.54322
300 2 28.7468 18.3341 -1.72189 28.7468 18.3341 -1.72189
301 1 29.4679 16.13 -0.129888 29.4679 16.13 -0.129888
302 2 31.3305 16.1384 1.67403 31.3305 16.1384 1.67403
303 2 31.528 16.1926 -1.64739 31.528 16.1926 -1.64739
304 1 32.3221 17.9735 0.0736249 32.3221 17.9735 0.0736249
305 2 34.3474 18.0786 1.73263 34.3474 18.0786 1.73263
306 2 34.4065 18.0426 -1.51454 34.4065 18.0426 -1.51454
307 1 35.2604 16.1914 0.125466 35.2604 16.1914 0.125466
308 2 37.049 16.1635 1.84274 37.049 16.1635 1.84274
309 2 37.1738 16.196 -1.43681 37.1738 16.196 -1.43681
310 1 38.0265 18.0415 0.19534 38.0265 18.0415 0.19534
311 2 40.1137 18.0858 1.6242 40.1137 18.0858 1.6242
312 2 39.9047 18.0307 -1.58447 39.9047 18.0307 -1.58447
313 1 40.935 16.2104 0.057385 40.935 16.2104 0.057385
314 2 42.9475 16.3051 1.57029 42.9475 16.3051 1.57029
315 2 42.7412 16.3753 -1.66094 42.7412 16.3753 -1.66094
316 1 43.7027 18.2011 -0.0753365 43.7027 18.2011 -0.0753365
317 2 45.6854 18.0618 1.49605 45.6854 18.0618 1.49605
318 2 45.6165 18.1708 -1.65414 45.6165 18.1708 -1.65414
319 1 46.5397 16.2111 -0.19574 46.5397 16.2111 -0.19574
320 2 48.6529 15.9558 1.20828 48.6529 15.9558 1.20828
321 2 48.5231 16.3582 -1.89202 48.5231 16.3582 -1.89202
322 1 49.5303 18.0189 -0.14122 49.5303 18.0189 -0.14122
323 2 51.5885 18.0851 1.28763 51.5885 18.0851 1.28763
324 2 51.3859 18.119 -1.83751 51.3859 18.119 -1.83751
325 1 0.875189 20.0487 -0.19628 0.875189 20.0487 -0.19628
326 2 2.9557 20.0896 1.29111 2.9557 20.0896 1.29111
327 2 2.87734 19.999 -1.92168 2.87734 19.999 -1.92168
328 1 3.81952 21.9322 -0.270903 3.81952 21.9322 -0.270903
329 2 5.76223 22.0316 1.32468 5.76223 22.0316 1.32468
330 2 5.74082 21.9031 -1.85505 5.74082 21.9031 -1.85505
331 1 6.72217 20.0066 -0.265469 6.72217 20.0066 -0.265469
332 2 8.56472 19.9203 1.45833 8.56472 19.9203 1.45833
333 2 8.70106 19.9392 -1.85112 8.70106 19.9392 -1.85112
334 1 9.47162 21.9009 -0.210528 9.47162 21.9009 -0.210528
335 2 11.5382 21.9989 1.28865 11.5382 21.9989 1.28865
336 2 11.4729 22.0213 -1.95213 11.4729 22.0213 -1.95213
337 1 12.4456 20.1559 -0.283357 12.4456 20.1559 -0.283357
338 2 14.3729 20.1946 1.35045 14.3729 20.1946 1.35045
339 2 14.2578 19.9678 -1.88957 14.2578 19.9678 -1.88957
340 1 15.3006 21.9736 -0.334499 15.3006 21.9736 -0.334499
341 2 17.1362 21.9536 1.45066 17.1362 21.9536 1.45066
342 2 17.2424 21.8781 -1.8309 17.2424 21.8781 -1.8309
343 1 18.0691 20.0238 -0.161254 18.0691 20.0238 -0.161254
344 2 20.1018 19.8604 1.33204 20.1018 19.8604 1.33204
345 2 19.9068 20.2397 -1.84273 19.9068 20.2397 -1.84273
346 1 20.9984 21.9272 -0.177154 20.9984 21.9272 -0.177154
347 2 22.9537 21.8786 1.48084 22.9537 21.8786 1.48084
348 2 23.0923 21.956 -1.78609 23.0923 21.956 -1.78609
349 1 23.7434 20.1044 -0.239932 23.7434 20.1044 -0.239932
350 2 25.7604 20.0225 1.48791 25.7604 20.0225 1.48791
351 2 25.7668 20.0457 -1.76707 25.7668 20.0457 -1.76707
352 1 26.6562 21.9524 -0.0921501 26.6562 21.9524 -0.0921501
353 2 28.5582 22.0167 1.62573 28.5582 22.0167 1.62573
354 2 28.5973 21.8367 -1.56616 28.5973 21.8367 -1.56616
355 1 29.5308 19.9276 0.163438 29.5308 19.9276 0.163438
356 2 31.4734 19.9417 1.72165 31.4734 19.9417 1.72165
357 2 31.4083 19.974 -1.42784 31.4083 19.974 -1.42784
358 1 32.3466 21.8987 0.164836 32.3466 21.8987 0.164836
359 2 34.3535 21.8852 1.74205 34.3535 21.8852 1.74205
360 2 34.2239 21.9376 -1.4674 34.2239 21.9376 -1.4674
361 1 35.1862 19.8996 0.0951006 35.1862 19.8996 0.0951006
362 2 37.1076 19.9619 1.71804 37.1076 19.9619 1.71804
363 2 37.0793 20.0372 -1.50127 37.0793 20.0372 -1.50127
364 1 38.0065 21.8957 0.0975329 38.0065 21.8957 0.0975329
365 2 39.9421 21.6799 1.69149 39.9421 21.6799 1.69149
366 2 39.9133 21.9766 -1.47684 39.9133 21.9766 -1.47684
367 1 40.8825 20.0794 -0.0639809 40.8825 20.0794 -0.0639809
368 2 42.7902 20.0271 1.54193 42.7902 20.0271 1.54193
369 2 42.7791 20.1219 -1.67007 42.7791 20.1219 -1.67007
370 1 43.844 21.9159 -0.217227 43.844 21.9159 -0.217227
371 2 45.4956 21.7751 1.60648 45.4956 21.7751 1.60648
372 2 45.9044 22.0254 -1.57317 45.9044 22.0254 -1.57317
373 1 46.5339 19.9186 0.00609507 46.5339 19.9186 0.00609507
374 2 48.4524 19.8561 1.58005 48.4524 19.8561 1.58005
375 2 48.4507 19.9695 -1.5866 48.4507 19.9695 -1.5866
376 1 49.4796 21.8598 0.124008 49.4796 21.8598 0.124008
377 2 51.4844 21.655 1.6372 51.4844 21.655 1.6372
378 2 51.2119 21.9577 -1.60697 51.2119 21.9577 -1.60697
379 1 0.914828 23.8217 0.15642 0.914828 23.8217 0.15642
380 2 3.03012 23.7455 1.54036 3.03012 23.7455 1.54036
381 2 2.83134 23.9506 -1.60077 2.83134 23.9506 -1.60077
382 1 3.84443 25.863 -0.0187093 3.84443 25.863 -0.0187093
383 2 6.00774 25.8561 1.41796 6.00774 25.8561 1.41796
384 2 5.63972 25.8471 -1.74087 5.63972 25.8471 -1.74087
385 1 6.61327 23.8752 -0.256038 6.61327 23.8752 -0.256038
386 2 8.59089 23.7809 1.32246 8.59089 23.7809 1.32246
387 2 8.54866 23.7521 -1.86828 8.54866 23.7521 -1.86828
388 1 9.54527 25.6729 -0.362587 9.54527 25.6729 -0.362587
389 2 11.5878 25.8516 1.15542 11.5878 25.8516 1.15542
390 2 11.5238 25.6601 -1.97061 11.5238 25.6601 -1.97061
391 1 12.4995 23.9089 -0.340903 12.4995 23.9089 -0.340903
392 2 14.4706 23.8733 1.25662 14.4706 23.8733 1.25662
393 2 14.3494 23.7594 -1.95154 14.3494 23.7594 -1.95154
394 1 15.2078 25.6752 -0.428269 15.2078 25.6752 -0.428269
395 2 16.9094 25.6516 1.32059 16.9094 25.6516 1.32059
396 2 17.2813 25.6881 -1.76947 17.2813 25.6881 -1.76947
397 1 18.0826 23.8483 -0.140307 18.0826 23.8483 -0.140307
398 2 20.0002 23.7056 1.49199 20.0002 23.7056 1.49199
399 2 20.0904 23.9753 -1.59455 20.0904 23.9753 -1.59455
400 1 20.9084 25.7862 0.0656099 20.9084 25.7862 0.0656099
401 2 22.8424 25.6643 1.68139 22.8424 25.6643 1.68139
402 2 22.9288 25.7344 -1.58741 22.9288 25.7344 -1.58741
403 1 23.8802 23.7952 0.00604426 23.8802 23.7952 0.00604426
404 2 25.9513 23.8211 1.48419 25.9513 23.8211 1.48419
405 2 25.7812 23.8118 -1.67163 25.7812 23.8118 -1.67163
406 1 26.677 25.7565 -0.0790643 26.677 25.7565 -0.0790643
407 2 28.4682 25.6178 1.69798 28.4682 25.6178 1.69798
408 2 28.8787 25.9382 -1.46663 28.8787 25.9382 -1.46663
409 1 29.5345 23.7795 -0.0549555 29.5345 23.7795 -0.0549555
410 2 31.418 24.0368 1.71325 31.418 24.0368 1.71325
411 2 31.554 23.8282 -1.57021 31.554 23.8282 -1.57021
412 1 32.4095 25.8368 -0.0119943 32.4095 25.8368 -0.0119943
413 2 34.2294 25.8286 1.70891 34.2294 25.8286 1.70891
414 2 34.5142 25.827 -1.43717 34.5142 25.827 -1.43717
415 1 35.176 23.7713 0.141439 35.176 23.7713 0.141439
416 2 37.1412 23.7205 1.733 37.1412 23.7205 1.733
417 2 37.2491 23.8597 -1.49844 37.2491 23.8597 -1.49844
418 1 38.0526 25.626 0.198862 38.0526 25.626 0.198862
419 2 40.0765 25.6558 1.79157 40.0765 25.6558 1.79157
420 2 40.0111 25.6448 -1.35954 40.0111 25.6448 -1.35954
421 1 40.9188 23.7973 0.20262 40.9188 23.7973 0.20262
422 2 43.1226 23.7294 1.61014 43.1226 23.7294 1.61014
423 2 42.8024 24.0365 -1.6097 42.8024 24.0365 -1.6097
424 1 43.7662 25.7505 0.0699503 43.7662 25.7505 0.0699503
425 2 45.6385 25.8155 1.81062 45.6385 25.8155 1.81062
426 2 45.842 25.7052 -1.43954 45.842 25.7052 -1.43954
427 1 46.6357 23.7234 0.351565 46.6357 23.7234 0.351565
428 2 48.6593 23.8432 1.80163 48.6593 23.8432 1.80163
429 2 48.4706 23.7411 -1.50439 48.4706 23.7411 -1.50439
430 1 49.4256 25.745 0.0520562 49.4256 25.745 0.0520562
431 2 51.3233 25.5739 1.71873 51.3233 25.5739 1.71873
432 2 51.3788 25.7913 -1.56278 51.3788 25.7913 -1.56278
433 1 0.9286 27.6676 0.101693 0.9286 27.6676 0.101693
434 2 3.01351 27.7532 1.6655 3.01351 27.7532 1.6655
435 2 2.79971 27.699 -1.62197 2.79971 27.699 -1.62197
436 1 3.88682 29.5683 -0.0748691 3.88682 29.5683 -0.0748691
437 2 5.87924 29.6348 1.44447 5.87924 29.6348 1.44447
438 2 5.71131 29.6555 -1.76946 5.71131 29.6555 -1.76946
439 1 6.77777 27.7478 -0.291476 6.77777 27.7478 -0.291476
440 2 8.70531 27.673 1.26274 8.70531 27.673 1.26274
441 2 8.5767 27.5543 -1.95391 8.5767 27.5543 -1.95391
442 1 9.53768 29.5638 -0.468565 9.53768 29.5638 -0.468565
443 2 11.4295 29.6031 1.05493 11.4295 29.6031 1.05493
444 2 11.4309 29.6251 -2.06662 11.4309 29.6251 -2.06662
445 1 12.4048 27.7335 -0.598936 12.4048 27.7335 -0.598936
446 2 14.244 27.5217 1.14646 14.244 27.5217 1.14646
447 2 14.4736 27.7545 -2.05425 14.4736 27.7545 -2.05425
448 1 15.1871 29.6368 -0.256371 15.1871 29.6368 -0.256371
449 2 16.9846 29.5959 1.41351 16.9846 29.5959 1.41351
450 2 17.1106 29.5545 -1.72171 17.1106 29.5545 -1.72171
451 1 18.0119 27.6861 -0.146628 18.0119 27.6861 -0.146628
452 2 19.7553 27.6446 1.60346 19.7553 27.6446 1.60346
453 2 20.196 27.7086 -1.5812 20.196 27.7086 -1.5812
454 1 20.9111 29.5786 0.169218 20.9111 29.5786 0.169218
455 2 23.0426 29.5283 1.69332 23.0426 29.5283 1.69332
456 2 22.7575 29.5365 -1.54277 22.7575 29.5365 -1.54277
457 1 23.7726 27.6079 0.0510865 23.7726 27.6079 0.0510865
458 2 25.8613 27.5581 1.65545 25.8613 27.5581 1.65545
459 2 25.7699 27.7152 -1.63514 25.7699 27.7152 -1.63514
460 1 26.6931 29.4473 0.0965447 26.6931 29.4473 0.0965447
461 2 28.5886 29.7029 1.78414 28.5886 29.7029 1.78414
462 2 28.6776 29.4226 -1.44124 28.6776 29.4226 -1.44124
463 1 29.5545 27.6977 0.35437 29.5545 27.6977 0.35437
464 2 31.7116 27.7655 1.68551 31.7116 27.7655 1.68551
465 2 31.3797 27.7611 -1.53614 31.3797 27.7611 -1.53614
466 1 32.4543 29.6208 0.110103 32.4543 29.6208 0.110103
467 2 34.425 29.5428 1.71737 34.425 29.5428 1.71737
468 2 34.4443 29.4646 -1.50895 34.4443 29.4646 -1.50895
469 1 35.2968 27.613 0.151238 35.2968 27.613 0.151238
470 2 37.3527 27.5789 1.74501 37.3527 27.5789 1.74501
471 2 37.2243 27.5128 -1.31162 37.2243 27.5128 -1.31162
472 1 38.1352 29.4458 0.134723 38.1352 29.4458 0.134723
473 2 40.13 29.5931 1.72852 40.13 29.5931 1.72852
474 2 39.886 29.5373 -1.56981 39.886 29.5373 -1.56981
475 1 40.9648 27.6674 0.0053598 40.9648 27.6674 0.0053598
476 2 42.9374 27.7445 1.60891 42.9374 27.7445 1.60891
477 2 42.9546 27.6505 -1.56289 42.9546 27.6505 -1.56289
478 1 43.8093 29.6588 -0.0768609 43.8093 29.6588 -0.0768609
479 2 45.8229 29.6928 1.61723 45.8229 29.6928 1.61723
480 2 45.798 29.5745 -1.5537 45.798 29.5745 -1.5537
481 1 46.6415 27.7308 0.113596 46.6415 27.7308 0.113596
482 2 48.6205 27.539 1.72198 48.6205 27.539 1.72198
483 2 48.5872 27.7886 -1.53376 48.5872 27.7886 -1.53376
484 1 49.5388 29.601 0.0238374 49.5388 29.601 0.0238374
485 2 51.5364 29.6388 1.62305 51.5364 29.6388 1.62305
486 2 51.5462 29.4546 -1.52805 51.5462 29.4546 -1.52805
487 1 1.13009 31.4867 -0.0627927 1.13009 31.4867 -0.0627927
488 2 3.10184 31.579 1.51283 3.10184 31.579 1.51283
489 2 2.99636 31.4417 -1.71246 2.99636 31.4417 -1.71246
490 1 3.83495 33.4232 -0.160182 3.83495 33.4232 -0.160182
491 2 5.87366 33.3972 1.53544 5.87366 33.3972 1.53544
492 2 5.83756 33.4016 -1.86602 5.83756 33.4016 -1.86602
493 1 6.61152 31.5415 -0.284616 6.61152 31.5415 -0.284616
494 2 8.64418 31.5787 1.23565 8.64418 31.5787 1.23565
495 2 8.50525 31.4791 -1.98698 8.50525 31.4791 -1.98698
496 1 9.6417 33.4253 -0.307568 9.6417 33.4253 -0.307568
497 2 11.6818 33.472 1.24267 11.6818 33.472 1.24267
498 2 11.6565 33.4445 -1.95179 11.6565 33.4445 -1.95179
499 1 12.4272 31.5333 -0.369679 12.4272 31.5333 -0.369679
500 2 14.2565 31.6004 1.31421 14.2565 31.6004 1.31421
501 2 14.302 31.5996 -1.95304 14.302 31.5996 -1.95304
502 1 15.3112 33.3898 -0.255603 15.3112 33.3898 -0.255603
503 2 17.1759 33.38 1.51565 17.1759 33.38 1.51565
504 2 17.3493 33.4817 -1.7501 17.3493 33.4817 -1.7501
505 1 18.0856 31.4779 -0.0554689 18.0856 31.4779 -0.0554689
506 2 19.9534 31.5051 1.65121 19.9534 31.5051 1.65121
507 2 20.1327 31.4411 -1.44441 20.1327 31.4411 -1.44441
508 1 20.939 33.4226 0.136713 20.939 33.4226 0.136713
509 2 22.9538 33.4659 1.68887 22.9538 33.4659 1.68887
510 2 22.8585 33.3869 -1.51628 22.8585 33.3869 -1.51628
511 1 23.7734 31.4452 0.084666 23.7734 31.4452 0.084666
512 2 25.6966 31.3141 1.75095 25.6966 31.3141 1.75095
513 2 25.7974 31.5927 -1.48404 25.7974 31.5927 -1.48404
514 1 26.6646 33.4488 0.218905 26.6646 33.4488 0.218905
515 2 28.7699 33.2573 1.77786 28.7699 33.2573 1.77786
516 2 28.5641 33.4119 -1.50012 28.5641 33.4119 -1.50012
517 1 29.4669 31.4676 0.0400651 29.4669 31.4676 0.0400651
518 2 31.514 31.5306 1.69228 31.514 31.5306 1.69228
519 2 31.4386 31.5009 -1.54483 31.4386 31.5009 -1.54483
520 1 32.4074 33.3382 0.0392579 32.4074 33.3382 0.0392579
521 2 34.3207 33.1879 1.80784 34.3207 33.1879 1.80784
522 2 34.3887 33.4184 -1.38258 34.3887 33.4184 -1.38258
523 1 35.2998 31.3612 0.0620743 35.2998 31.3612 0.0620743
524 2 37.0743 31.3696 1.75116 37.0743 31.3696 1.75116
525 2 37.3065 31.3212 -1.47356 37.3065 31.3212 -1.47356
526 1 38.0827 33.4383 0.235347 38.0827 33.4383 0.235347
527 2 40.1343 33.3746 1.75572 40.1343 33.3746 1.75572
528 2 40.0304 33.5328 -1.50001 40.0304 33.5328 -1.50001
529 1 40.8665 31.5082 -0.0721463 40.8665 31.5082 -0.0721463
530 2 42.8885 31.3474 1.52112 42.8885 31.3474 1.52112
531 2 42.9855 31.651 -1.59693 42.9855 31.651 -1.59693
532 1 43.7993 33.3882 0.103628 43.7993 33.3882 0.103628
533 2 45.8934 33.3412 1.70724 45.8934 33.3412 1.70724
534 2 45.6586 33.3604 -1.63221 45.6586 33.3604 -1.63221
535 1 46.6755 31.5496 -0.00539001 46.6755 31.5496 -0.00539001